<?xml version="1.0"?>
<VTKFile type="UnstructuredGrid" version="0.1" byte_order="LittleEndian" compressor="vtkZLibDataCompressor">
<UnstructuredGrid>
<Piece NumberOfPoints="192" NumberOfCells="48">
<Points>
<DataArray type="Float32" NumberOfComponents="3" format="ascii">
0.000000e+00 3.634726e-01 0.000000e+00
0.000000e+00 4.000000e-01 0.000000e+00
5.146646e-02 3.634786e-01 0.000000e+00
5.146023e-02 4.000000e-01 0.000000e+00
5.146646e-02 3.634786e-01 0.000000e+00
5.146023e-02 4.000000e-01 0.000000e+00
1.029315e-01 3.634957e-01 0.000000e+00
1.029189e-01 4.000000e-01 0.000000e+00
1.029315e-01 3.634957e-01 0.000000e+00
1.029189e-01 4.000000e-01 0.000000e+00
1.543929e-01 3.635242e-01 0.000000e+00
1.543740e-01 4.000000e-01 0.000000e+00
1.543929e-01 3.635242e-01 0.000000e+00
1.543740e-01 4.000000e-01 0.000000e+00
2.058492e-01 3.635641e-01 0.000000e+00
2.058240e-01 4.000000e-01 0.000000e+00
2.058492e-01 3.635641e-01 0.000000e+00
2.058240e-01 4.000000e-01 0.000000e+00
2.572984e-01 3.636152e-01 0.000000e+00
2.572670e-01 4.000000e-01 0.000000e+00
2.572984e-01 3.636152e-01 0.000000e+00
2.572670e-01 4.000000e-01 0.000000e+00
3.087387e-01 3.636776e-01 0.000000e+00
3.087011e-01 4.000000e-01 0.000000e+00
3.087387e-01 3.636776e-01 0.000000e+00
3.087011e-01 4.000000e-01 0.000000e+00
3.601682e-01 3.637510e-01 0.000000e+00
3.601245e-01 4.000000e-01 0.000000e+00
3.601682e-01 3.637510e-01 0.000000e+00
3.601245e-01 4.000000e-01 0.000000e+00
4.115849e-01 3.638355e-01 0.000000e+00
4.115351e-01 4.000000e-01 0.000000e+00
4.115849e-01 3.638355e-01 0.000000e+00
4.115351e-01 4.000000e-01 0.000000e+00
4.629867e-01 3.639309e-01 0.000000e+00
4.629309e-01 4.000000e-01 0.000000e+00
4.629867e-01 3.639309e-01 0.000000e+00
4.629309e-01 4.000000e-01 0.000000e+00
5.143714e-01 3.640370e-01 0.000000e+00
5.143096e-01 4.000000e-01 0.000000e+00
5.143714e-01 3.640370e-01 0.000000e+00
5.143096e-01 4.000000e-01 0.000000e+00
5.657366e-01 3.641536e-01 0.000000e+00
5.656689e-01 4.000000e-01 0.000000e+00
5.657366e-01 3.641536e-01 0.000000e+00
5.656689e-01 4.000000e-01 0.000000e+00
6.170799e-01 3.642808e-01 0.000000e+00
6.170063e-01 4.000000e-01 0.000000e+00
6.170799e-01 3.642808e-01 0.000000e+00
6.170063e-01 4.000000e-01 0.000000e+00
6.683985e-01 3.644181e-01 0.000000e+00
6.683192e-01 4.000000e-01 0.000000e+00
6.683985e-01 3.644181e-01 0.000000e+00
6.683192e-01 4.000000e-01 0.000000e+00
7.196898e-01 3.645655e-01 0.000000e+00
7.196048e-01 4.000000e-01 0.000000e+00
7.196898e-01 3.645655e-01 0.000000e+00
7.196048e-01 4.000000e-01 0.000000e+00
7.709507e-01 3.647227e-01 0.000000e+00
7.708602e-01 4.000000e-01 0.000000e+00
7.709507e-01 3.647227e-01 0.000000e+00
7.708602e-01 4.000000e-01 0.000000e+00
8.221781e-01 3.648895e-01 0.000000e+00
8.220821e-01 4.000000e-01 0.000000e+00
8.221781e-01 3.648895e-01 0.000000e+00
8.220821e-01 4.000000e-01 0.000000e+00
8.733685e-01 3.650657e-01 0.000000e+00
8.732672e-01 4.000000e-01 0.000000e+00
8.733685e-01 3.650657e-01 0.000000e+00
8.732672e-01 4.000000e-01 0.000000e+00
9.245184e-01 3.652510e-01 0.000000e+00
9.244118e-01 4.000000e-01 0.000000e+00
9.245184e-01 3.652510e-01 0.000000e+00
9.244118e-01 4.000000e-01 0.000000e+00
9.756238e-01 3.654451e-01 0.000000e+00
9.755121e-01 4.000000e-01 0.000000e+00
9.756238e-01 3.654451e-01 0.000000e+00
9.755121e-01 4.000000e-01 0.000000e+00
1.026681e+00 3.656478e-01 0.000000e+00
1.026564e+00 4.000000e-01 0.000000e+00
1.026681e+00 3.656478e-01 0.000000e+00
1.026564e+00 4.000000e-01 0.000000e+00
1.077685e+00 3.658588e-01 0.000000e+00
1.077563e+00 4.000000e-01 0.000000e+00
1.077685e+00 3.658588e-01 0.000000e+00
1.077563e+00 4.000000e-01 0.000000e+00
1.128631e+00 3.660778e-01 0.000000e+00
1.128505e+00 4.000000e-01 0.000000e+00
1.128631e+00 3.660778e-01 0.000000e+00
1.128505e+00 4.000000e-01 0.000000e+00
1.179514e+00 3.663044e-01 0.000000e+00
1.179384e+00 4.000000e-01 0.000000e+00
1.179514e+00 3.663044e-01 0.000000e+00
1.179384e+00 4.000000e-01 0.000000e+00
1.230330e+00 3.665385e-01 0.000000e+00
1.230195e+00 4.000000e-01 0.000000e+00
1.230330e+00 3.665385e-01 0.000000e+00
1.230195e+00 4.000000e-01 0.000000e+00
1.281072e+00 3.667797e-01 0.000000e+00
1.280933e+00 4.000000e-01 0.000000e+00
1.281072e+00 3.667797e-01 0.000000e+00
1.280933e+00 4.000000e-01 0.000000e+00
1.331735e+00 3.670276e-01 0.000000e+00
1.331591e+00 4.000000e-01 0.000000e+00
1.331735e+00 3.670276e-01 0.000000e+00
1.331591e+00 4.000000e-01 0.000000e+00
1.382311e+00 3.672819e-01 0.000000e+00
1.382164e+00 4.000000e-01 0.000000e+00
1.382311e+00 3.672819e-01 0.000000e+00
1.382164e+00 4.000000e-01 0.000000e+00
1.432794e+00 3.675424e-01 0.000000e+00
1.432644e+00 4.000000e-01 0.000000e+00
1.432794e+00 3.675424e-01 0.000000e+00
1.432644e+00 4.000000e-01 0.000000e+00
1.483176e+00 3.678086e-01 0.000000e+00
1.483027e+00 4.000000e-01 0.000000e+00
1.483176e+00 3.678086e-01 0.000000e+00
1.483027e+00 4.000000e-01 0.000000e+00
1.533448e+00 3.680804e-01 0.000000e+00
1.533306e+00 4.000000e-01 0.000000e+00
1.533448e+00 3.680804e-01 0.000000e+00
1.533306e+00 4.000000e-01 0.000000e+00
1.583595e+00 3.683578e-01 0.000000e+00
1.583482e+00 4.000000e-01 0.000000e+00
1.583595e+00 3.683578e-01 0.000000e+00
1.583482e+00 4.000000e-01 0.000000e+00
1.633591e+00 3.686410e-01 0.000000e+00
1.633571e+00 4.000000e-01 0.000000e+00
1.633591e+00 3.686410e-01 0.000000e+00
1.633571e+00 4.000000e-01 0.000000e+00
1.683374e+00 3.689313e-01 0.000000e+00
1.683625e+00 4.000000e-01 0.000000e+00
1.683374e+00 3.689313e-01 0.000000e+00
1.683625e+00 4.000000e-01 0.000000e+00
1.732787e+00 3.692234e-01 0.000000e+00
1.733791e+00 4.000000e-01 0.000000e+00
1.732787e+00 3.692234e-01 0.000000e+00
1.733791e+00 4.000000e-01 0.000000e+00
1.781426e+00 3.694035e-01 0.000000e+00
1.784273e+00 4.000000e-01 0.000000e+00
1.781426e+00 3.694035e-01 0.000000e+00
1.784273e+00 4.000000e-01 0.000000e+00
1.828771e+00 3.681477e-01 0.000000e+00
1.833919e+00 3.992554e-01 0.000000e+00
1.828771e+00 3.681477e-01 0.000000e+00
1.833919e+00 3.992554e-01 0.000000e+00
1.874404e+00 3.619303e-01 0.000000e+00
1.881945e+00 3.922200e-01 0.000000e+00
1.874404e+00 3.619303e-01 0.000000e+00
1.881945e+00 3.922200e-01 0.000000e+00
1.918023e+00 3.495527e-01 0.000000e+00
1.928880e+00 3.784791e-01 0.000000e+00
1.918023e+00 3.495527e-01 0.000000e+00
1.928880e+00 3.784791e-01 0.000000e+00
1.959290e+00 3.314168e-01 0.000000e+00
1.973567e+00 3.584903e-01 0.000000e+00
1.959290e+00 3.314168e-01 0.000000e+00
1.973567e+00 3.584903e-01 0.000000e+00
1.997682e+00 3.080126e-01 0.000000e+00
2.015147e+00 3.328256e-01 0.000000e+00
1.997682e+00 3.080126e-01 0.000000e+00
2.015147e+00 3.328256e-01 0.000000e+00
2.032687e+00 2.798821e-01 0.000000e+00
2.052984e+00 3.021172e-01 0.000000e+00
2.032687e+00 2.798821e-01 0.000000e+00
2.052984e+00 3.021172e-01 0.000000e+00
2.063852e+00 2.475999e-01 0.000000e+00
2.086589e+00 2.670148e-01 0.000000e+00
2.063852e+00 2.475999e-01 0.000000e+00
2.086589e+00 2.670148e-01 0.000000e+00
2.090804e+00 2.117567e-01 0.000000e+00
2.115582e+00 2.281686e-01 0.000000e+00
2.090804e+00 2.117567e-01 0.000000e+00
2.115582e+00 2.281686e-01 0.000000e+00
2.113239e+00 1.729497e-01 0.000000e+00
2.139668e+00 1.862221e-01 0.000000e+00
2.113239e+00 1.729497e-01 0.000000e+00
2.139668e+00 1.862221e-01 0.000000e+00
2.130920e+00 1.317766e-01 0.000000e+00
2.158619e+00 1.418100e-01 0.000000e+00
2.130920e+00 1.317766e-01 0.000000e+00
2.158619e+00 1.418100e-01 0.000000e+00
2.143671e+00 8.883278e-02 0.000000e+00
2.172269e+00 9.555784e-02 0.000000e+00
2.143671e+00 8.883278e-02 0.000000e+00
2.172269e+00 9.555784e-02 0.000000e+00
2.151370e+00 4.471061e-02 0.000000e+00
2.180504e+00 4.808371e-02 0.000000e+00
2.151370e+00 4.471061e-02 0.000000e+00
2.180504e+00 4.808371e-02 0.000000e+00
2.153944e+00 1.054698e-11 0.000000e+00
2.183256e+00 1.069051e-11 0.000000e+00
</DataArray>
</Points>
<Cells>
<DataArray type="Int32" Name="connectivity" format="ascii">
0 1 3 2
4 5 7 6
8 9 11 10
12 13 15 14
16 17 19 18
20 21 23 22
24 25 27 26
28 29 31 30
32 33 35 34
36 37 39 38
40 41 43 42
44 45 47 46
48 49 51 50
52 53 55 54
56 57 59 58
60 61 63 62
64 65 67 66
68 69 71 70
72 73 75 74
76 77 79 78
80 81 83 82
84 85 87 86
88 89 91 90
92 93 95 94
96 97 99 98
100 101 103 102
104 105 107 106
108 109 111 110
112 113 115 114
116 117 119 118
120 121 123 122
124 125 127 126
128 129 131 130
132 133 135 134
136 137 139 138
140 141 143 142
144 145 147 146
148 149 151 150
152 153 155 154
156 157 159 158
160 161 163 162
164 165 167 166
168 169 171 170
172 173 175 174
176 177 179 178
180 181 183 182
184 185 187 186
188 189 191 190
</DataArray>
<DataArray type="Int32" Name="offsets" format="ascii">
4
8
12
16
20
24
28
32
36
40
44
48
52
56
60
64
68
72
76
80
84
88
92
96
100
104
108
112
116
120
124
128
132
136
140
144
148
152
156
160
164
168
172
176
180
184
188
192
</DataArray>
<DataArray type="UInt8" Name="types" format="ascii">
9
9
9
9
9
9
9
9
9
9
9
9
9
9
9
9
9
9
9
9
9
9
9
9
9
9
9
9
9
9
9
9
9
9
9
9
9
9
9
9
9
9
9
9
9
9
9
9
</DataArray>
</Cells>
<PointData>
<DataArray type="Float32" Name="V1" format="ascii">
1.535258e+01
9.441782e+00
1.535777e+01
9.446976e+00
1.535972e+01
9.445751e+00
1.537218e+01
9.458207e+00
1.537597e+01
9.455693e+00
1.539726e+01
9.476982e+00
1.540262e+01
9.472887e+00
1.543268e+01
9.502947e+00
1.543968e+01
9.497320e+00
1.547851e+01
9.536152e+00
1.548719e+01
9.529009e+00
1.553483e+01
9.576645e+00
1.554521e+01
9.567989e+00
1.560170e+01
9.624478e+00
1.561381e+01
9.614305e+00
1.567922e+01
9.679713e+00
1.569308e+01
9.668013e+00
1.576749e+01
9.742418e+00
1.578313e+01
9.729176e+00
1.586662e+01
9.812670e+00
1.588406e+01
9.797870e+00
1.597675e+01
9.890557e+00
1.599601e+01
9.874179e+00
1.609801e+01
9.976176e+00
1.611914e+01
9.958197e+00
1.623057e+01
1.006963e+01
1.625359e+01
1.005003e+01
1.637460e+01
1.017104e+01
1.639955e+01
1.014978e+01
1.653030e+01
1.028053e+01
1.655721e+01
1.025759e+01
1.669785e+01
1.039824e+01
1.672677e+01
1.037359e+01
1.687750e+01
1.052431e+01
1.690846e+01
1.049791e+01
1.706946e+01
1.065891e+01
1.710252e+01
1.063073e+01
1.727401e+01
1.080221e+01
1.730921e+01
1.077220e+01
1.749140e+01
1.095438e+01
1.752880e+01
1.092251e+01
1.772193e+01
1.111564e+01
1.776158e+01
1.108185e+01
1.796590e+01
1.128617e+01
1.800786e+01
1.125043e+01
1.822365e+01
1.146622e+01
1.826798e+01
1.142847e+01
1.849552e+01
1.165601e+01
1.854227e+01
1.161621e+01
1.878186e+01
1.185580e+01
1.883109e+01
1.181391e+01
1.908306e+01
1.206588e+01
1.913480e+01
1.202187e+01
1.939949e+01
1.228655e+01
1.945370e+01
1.224047e+01
1.973147e+01
1.251824e+01
1.978788e+01
1.247031e+01
2.007914e+01
1.276157e+01
2.013679e+01
1.271263e+01
2.044199e+01
1.301783e+01
2.049789e+01
1.297042e+01
2.081762e+01
1.329014e+01
2.086281e+01
1.325196e+01
2.119797e+01
1.358713e+01
2.120599e+01
1.358078e+01
2.155850e+01
1.393329e+01
2.145369e+01
1.402350e+01
2.182800e+01
1.439780e+01
2.141482e+01
1.475544e+01
2.181323e+01
1.515385e+01
2.082463e+01
1.601548e+01
2.116081e+01
1.635166e+01
2.015249e+01
1.718630e+01
2.054903e+01
1.758284e+01
2.014529e+01
1.792972e+01
2.053890e+01
1.832333e+01
2.043419e+01
1.841280e+01
2.081197e+01
1.879058e+01
2.081831e+01
1.878533e+01
2.117416e+01
1.914118e+01
2.121869e+01
1.910340e+01
2.154663e+01
1.943134e+01
2.160116e+01
1.938504e+01
2.189573e+01
1.967961e+01
2.194905e+01
1.963434e+01
2.220560e+01
1.989089e+01
2.225301e+01
1.985064e+01
2.246775e+01
2.006539e+01
2.250709e+01
2.003200e+01
2.267704e+01
2.020195e+01
2.270721e+01
2.017635e+01
2.283015e+01
2.029928e+01
2.285053e+01
2.028198e+01
2.292490e+01
2.035634e+01
2.293517e+01
2.034762e+01
2.296006e+01
2.037251e+01
</DataArray>
<DataArray type="Float32" Name="V2" format="ascii">
3.634726e-01
4.000000e-01
3.649680e-01
4.014696e-01
3.649680e-01
4.014696e-01
3.694495e-01
4.058748e-01
3.694495e-01
4.058748e-01
3.769069e-01
4.132052e-01
3.769069e-01
4.132052e-01
3.873225e-01
4.234434e-01
3.873225e-01
4.234434e-01
4.006713e-01
4.365650e-01
4.006713e-01
4.365650e-01
4.169215e-01
4.525387e-01
4.169215e-01
4.525387e-01
4.360344e-01
4.713265e-01
4.360344e-01
4.713265e-01
4.579641e-01
4.928835e-01
4.579641e-01
4.928835e-01
4.826581e-01
5.171579e-01
4.826581e-01
5.171579e-01
5.100568e-01
5.440915e-01
5.100568e-01
5.440915e-01
5.400943e-01
5.736193e-01
5.400943e-01
5.736193e-01
5.726978e-01
6.056699e-01
5.726978e-01
6.056699e-01
6.077880e-01
6.401656e-01
6.077880e-01
6.401656e-01
6.452795e-01
6.770222e-01
6.452795e-01
6.770222e-01
6.850804e-01
7.161495e-01
6.850804e-01
7.161495e-01
7.270926e-01
7.574512e-01
7.270926e-01
7.574512e-01
7.712124e-01
8.008252e-01
7.712124e-01
8.008252e-01
8.173300e-01
8.461635e-01
8.173300e-01
8.461635e-01
8.653299e-01
8.933527e-01
8.653299e-01
8.933527e-01
9.150915e-01
9.422739e-01
9.150915e-01
9.422739e-01
9.664885e-01
9.928029e-01
9.664885e-01
9.928029e-01
1.019390e+00
1.044811e+00
1.019390e+00
1.044811e+00
1.073659e+00
1.098163e+00
1.073659e+00
1.098163e+00
1.129157e+00
1.152722e+00
1.129157e+00
1.152722e+00
1.185736e+00
1.208344e+00
1.185736e+00
1.208344e+00
1.243249e+00
1.264881e+00
1.243249e+00
1.264881e+00
1.301542e+00
1.322184e+00
1.301542e+00
1.322184e+00
1.360458e+00
1.380098e+00
1.360458e+00
1.380098e+00
1.419835e+00
1.438464e+00
1.419835e+00
1.438464e+00
1.479510e+00
1.497125e+00
1.479510e+00
1.497125e+00
1.539310e+00
1.555924e+00
1.539310e+00
1.555924e+00
1.599051e+00
1.614714e+00
1.599051e+00
1.614714e+00
1.658517e+00
1.673384e+00
1.658517e+00
1.673384e+00
1.717393e+00
1.731906e+00
1.717393e+00
1.731906e+00
1.775092e+00
1.790312e+00
1.775092e+00
1.790312e+00
1.830449e+00
1.847109e+00
1.830449e+00
1.847109e+00
1.881756e+00
1.899483e+00
1.881756e+00
1.899483e+00
1.928594e+00
1.948172e+00
1.928594e+00
1.948172e+00
1.971129e+00
1.992650e+00
1.971129e+00
1.992650e+00
2.009333e+00
2.032625e+00
2.009333e+00
2.032625e+00
2.043141e+00
2.067958e+00
2.043141e+00
2.067958e+00
2.072500e+00
2.098588e+00
2.072500e+00
2.098588e+00
2.097372e+00
2.124493e+00
2.097372e+00
2.124493e+00
2.117734e+00
2.145669e+00
2.117734e+00
2.145669e+00
2.133576e+00
2.162124e+00
2.133576e+00
2.162124e+00
2.144891e+00
2.173868e+00
2.144891e+00
2.173868e+00
2.151681e+00
2.180910e+00
2.151681e+00
2.180910e+00
2.153944e+00
2.183256e+00
</DataArray>
<DataArray type="Float32" Name="V3" format="ascii">
0.000000e+00
0.000000e+00
3.954621e-02
3.834504e-02
3.954621e-02
3.834504e-02
7.893731e-02
7.653725e-02
7.893731e-02
7.653725e-02
1.180179e-01
1.144238e-01
1.180179e-01
1.144238e-01
1.566334e-01
1.518527e-01
1.566334e-01
1.518527e-01
1.946304e-01
1.886726e-01
1.946304e-01
1.886726e-01
2.318564e-01
2.247334e-01
2.318564e-01
2.247334e-01
2.681603e-01
2.598864e-01
2.681603e-01
2.598864e-01
3.033930e-01
2.939848e-01
3.033930e-01
2.939848e-01
3.374071e-01
3.268833e-01
3.374071e-01
3.268833e-01
3.700579e-01
3.584394e-01
3.700579e-01
3.584394e-01
4.012031e-01
3.885128e-01
4.012031e-01
3.885128e-01
4.307032e-01
4.169661e-01
4.307032e-01
4.169661e-01
4.584221e-01
4.436650e-01
4.584221e-01
4.436650e-01
4.842270e-01
4.684785e-01
4.842270e-01
4.684785e-01
5.079888e-01
4.912793e-01
5.079888e-01
4.912793e-01
5.295824e-01
5.119440e-01
5.295824e-01
5.119440e-01
5.488870e-01
5.303533e-01
5.488870e-01
5.303533e-01
5.657864e-01
5.463922e-01
5.657864e-01
5.463922e-01
5.801690e-01
5.599507e-01
5.801690e-01
5.599507e-01
5.919283e-01
5.709234e-01
5.919283e-01
5.709234e-01
6.009631e-01
5.792102e-01
6.009631e-01
5.792102e-01
6.071778e-01
5.847163e-01
6.071778e-01
5.847163e-01
6.104823e-01
5.873528e-01
6.104823e-01
5.873528e-01
6.107929e-01
5.870363e-01
6.107929e-01
5.870363e-01
6.080318e-01
5.836900e-01
6.080318e-01
5.836900e-01
6.021277e-01
5.772429e-01
6.021277e-01
5.772429e-01
5.930160e-01
5.676311e-01
5.930160e-01
5.676311e-01
5.806388e-01
5.547972e-01
5.806388e-01
5.547972e-01
5.649451e-01
5.386912e-01
5.649451e-01
5.386912e-01
5.458903e-01
5.192712e-01
5.458903e-01
5.192712e-01
5.234353e-01
4.965053e-01
5.234353e-01
4.965053e-01
4.975428e-01
4.703752e-01
4.975428e-01
4.703752e-01
4.681688e-01
4.408870e-01
4.681688e-01
4.408870e-01
4.352459e-01
4.080871e-01
4.352459e-01
4.080871e-01
3.987309e-01
3.720364e-01
3.987309e-01
3.720364e-01
3.597164e-01
3.329467e-01
3.597164e-01
3.329467e-01
3.215262e-01
2.958343e-01
3.215262e-01
2.958343e-01
2.855263e-01
2.616247e-01
2.855263e-01
2.616247e-01
2.516058e-01
2.298425e-01
2.516058e-01
2.298425e-01
2.195210e-01
2.000737e-01
2.195210e-01
2.000737e-01
1.890041e-01
1.719590e-01
1.890041e-01
1.719590e-01
1.597953e-01
1.451891e-01
1.597953e-01
1.451891e-01
1.316542e-01
1.194978e-01
1.316542e-01
1.194978e-01
1.043629e-01
9.465374e-02
1.043629e-01
9.465374e-02
7.772463e-02
7.045455e-02
7.772463e-02
7.045455e-02
5.156023e-02
4.671996e-02
5.156023e-02
4.671996e-02
2.570417e-02
2.328612e-02
2.570417e-02
2.328612e-02
0.000000e+00
0.000000e+00
</DataArray>
<DataArray type="Float32" Name="V4" format="ascii">
9.000000e-01
1.000000e+00
9.000000e-01
1.000000e+00
9.000000e-01
1.000000e+00
9.000000e-01
1.000000e+00
9.000000e-01
1.000000e+00
9.000000e-01
1.000000e+00
9.000000e-01
1.000000e+00
9.000000e-01
1.000000e+00
9.000000e-01
1.000000e+00
9.000000e-01
1.000000e+00
9.000000e-01
1.000000e+00
9.000000e-01
1.000000e+00
9.000000e-01
1.000000e+00
9.000000e-01
1.000000e+00
9.000000e-01
1.000000e+00
9.000000e-01
1.000000e+00
9.000000e-01
1.000000e+00
9.000000e-01
1.000000e+00
9.000000e-01
1.000000e+00
9.000000e-01
1.000000e+00
9.000000e-01
1.000000e+00
9.000000e-01
1.000000e+00
9.000000e-01
1.000000e+00
9.000000e-01
1.000000e+00
9.000000e-01
1.000000e+00
9.000000e-01
1.000000e+00
9.000000e-01
1.000000e+00
9.000000e-01
1.000000e+00
9.000000e-01
1.000000e+00
9.000000e-01
1.000000e+00
9.000000e-01
1.000000e+00
9.000000e-01
1.000000e+00
9.000000e-01
1.000000e+00
9.000000e-01
1.000000e+00
9.000000e-01
1.000000e+00
9.000000e-01
1.000000e+00
9.000000e-01
1.000000e+00
9.000000e-01
1.000000e+00
9.000000e-01
1.000000e+00
9.000000e-01
1.000000e+00
9.000000e-01
1.000000e+00
9.000000e-01
1.000000e+00
9.000000e-01
1.000000e+00
9.000000e-01
1.000000e+00
9.000000e-01
1.000000e+00
9.000000e-01
1.000000e+00
9.000000e-01
1.000000e+00
9.000000e-01
1.000000e+00
9.000000e-01
1.000000e+00
9.000000e-01
1.000000e+00
9.000000e-01
1.000000e+00
9.000000e-01
1.000000e+00
9.000000e-01
1.000000e+00
9.000000e-01
1.000000e+00
9.000000e-01
1.000000e+00
9.000000e-01
1.000000e+00
9.000000e-01
1.000000e+00
9.000000e-01
1.000000e+00
9.000000e-01
1.000000e+00
9.000000e-01
1.000000e+00
9.000000e-01
1.000000e+00
9.000000e-01
1.000000e+00
9.000000e-01
1.000000e+00
9.000000e-01
1.000000e+00
9.000000e-01
1.000000e+00
9.000000e-01
1.000000e+00
9.000000e-01
1.000000e+00
9.000000e-01
1.000000e+00
9.000000e-01
1.000000e+00
9.000000e-01
1.000000e+00
9.000000e-01
1.000000e+00
9.000000e-01
1.000000e+00
9.000000e-01
1.000000e+00
9.000000e-01
1.000000e+00
9.000000e-01
1.000000e+00
9.000000e-01
1.000000e+00
9.000000e-01
1.000000e+00
9.000000e-01
1.000000e+00
9.000000e-01
1.000000e+00
9.000000e-01
1.000000e+00
9.000000e-01
1.000000e+00
9.000000e-01
1.000000e+00
9.000000e-01
1.000000e+00
9.000000e-01
1.000000e+00
9.000000e-01
1.000000e+00
9.000000e-01
1.000000e+00
9.000000e-01
1.000000e+00
9.000000e-01
1.000000e+00
9.000000e-01
1.000000e+00
9.000000e-01
1.000000e+00
9.000000e-01
1.000000e+00
9.000000e-01
1.000000e+00
9.000000e-01
1.000000e+00
9.000000e-01
1.000000e+00
9.000000e-01
1.000000e+00
9.000000e-01
1.000000e+00
</DataArray>
<DataArray type="Float32" Name="V5" format="ascii">
0.000000e+00
0.000000e+00
3.272492e-02
3.272492e-02
3.272492e-02
3.272492e-02
6.544985e-02
6.544985e-02
6.544985e-02
6.544985e-02
9.817477e-02
9.817477e-02
9.817477e-02
9.817477e-02
1.308997e-01
1.308997e-01
1.308997e-01
1.308997e-01
1.636246e-01
1.636246e-01
1.636246e-01
1.636246e-01
1.963495e-01
1.963495e-01
1.963495e-01
1.963495e-01
2.290745e-01
2.290745e-01
2.290745e-01
2.290745e-01
2.617994e-01
2.617994e-01
2.617994e-01
2.617994e-01
2.945243e-01
2.945243e-01
2.945243e-01
2.945243e-01
3.272492e-01
3.272492e-01
3.272492e-01
3.272492e-01
3.599742e-01
3.599742e-01
3.599742e-01
3.599742e-01
3.926991e-01
3.926991e-01
3.926991e-01
3.926991e-01
4.254240e-01
4.254240e-01
4.254240e-01
4.254240e-01
4.581489e-01
4.581489e-01
4.581489e-01
4.581489e-01
4.908739e-01
4.908739e-01
4.908739e-01
4.908739e-01
5.235988e-01
5.235988e-01
5.235988e-01
5.235988e-01
5.563237e-01
5.563237e-01
5.563237e-01
5.563237e-01
5.890486e-01
5.890486e-01
5.890486e-01
5.890486e-01
6.217735e-01
6.217735e-01
6.217735e-01
6.217735e-01
6.544985e-01
6.544985e-01
6.544985e-01
6.544985e-01
6.872234e-01
6.872234e-01
6.872234e-01
6.872234e-01
7.199483e-01
7.199483e-01
7.199483e-01
7.199483e-01
7.526732e-01
7.526732e-01
7.526732e-01
7.526732e-01
7.853982e-01
7.853982e-01
7.853982e-01
7.853982e-01
8.181231e-01
8.181231e-01
8.181231e-01
8.181231e-01
8.508480e-01
8.508480e-01
8.508480e-01
8.508480e-01
8.835729e-01
8.835729e-01
8.835729e-01
8.835729e-01
9.162979e-01
9.162979e-01
9.162979e-01
9.162979e-01
9.490228e-01
9.490228e-01
9.490228e-01
9.490228e-01
9.817477e-01
9.817477e-01
9.817477e-01
9.817477e-01
1.014473e+00
1.014473e+00
1.014473e+00
1.014473e+00
1.047198e+00
1.047198e+00
1.047198e+00
1.047198e+00
1.079922e+00
1.079922e+00
1.079922e+00
1.079922e+00
1.112647e+00
1.112647e+00
1.112647e+00
1.112647e+00
1.145372e+00
1.145372e+00
1.145372e+00
1.145372e+00
1.178097e+00
1.178097e+00
1.178097e+00
1.178097e+00
1.210822e+00
1.210822e+00
1.210822e+00
1.210822e+00
1.243547e+00
1.243547e+00
1.243547e+00
1.243547e+00
1.276272e+00
1.276272e+00
1.276272e+00
1.276272e+00
1.308997e+00
1.308997e+00
1.308997e+00
1.308997e+00
1.341722e+00
1.341722e+00
1.341722e+00
1.341722e+00
1.374447e+00
1.374447e+00
1.374447e+00
1.374447e+00
1.407172e+00
1.407172e+00
1.407172e+00
1.407172e+00
1.439897e+00
1.439897e+00
1.439897e+00
1.439897e+00
1.472622e+00
1.472622e+00
1.472622e+00
1.472622e+00
1.505346e+00
1.505346e+00
1.505346e+00
1.505346e+00
1.538071e+00
1.538071e+00
1.538071e+00
1.538071e+00
1.570796e+00
1.570796e+00
</DataArray>
</PointData>
</Piece></UnstructuredGrid>
</VTKFile>
