<?xml version="1.0"?>
<VTKFile type="UnstructuredGrid" version="0.1" byte_order="LittleEndian" compressor="vtkZLibDataCompressor">
<UnstructuredGrid>
<Piece NumberOfPoints="744" NumberOfCells="186">
<Points>
<DataArray type="Float32" NumberOfComponents="3" format="ascii">
0.000000e+00 3.634624e-01 0.000000e+00
0.000000e+00 3.807695e-01 0.000000e+00
2.655960e-02 3.634640e-01 0.000000e+00
2.655761e-02 3.807703e-01 0.000000e+00
0.000000e+00 3.807695e-01 0.000000e+00
0.000000e+00 4.000000e-01 0.000000e+00
2.655761e-02 3.807703e-01 0.000000e+00
2.655658e-02 4.000000e-01 0.000000e+00
2.655960e-02 3.634640e-01 0.000000e+00
2.655761e-02 3.807703e-01 0.000000e+00
5.311900e-02 3.634686e-01 0.000000e+00
5.311499e-02 3.807727e-01 0.000000e+00
2.655761e-02 3.807703e-01 0.000000e+00
2.655658e-02 4.000000e-01 0.000000e+00
5.311499e-02 3.807727e-01 0.000000e+00
5.311293e-02 4.000000e-01 0.000000e+00
5.311900e-02 3.634686e-01 0.000000e+00
5.311499e-02 3.807727e-01 0.000000e+00
7.967791e-02 3.634762e-01 0.000000e+00
7.967190e-02 3.807767e-01 0.000000e+00
5.311499e-02 3.807727e-01 0.000000e+00
5.311293e-02 4.000000e-01 0.000000e+00
7.967190e-02 3.807767e-01 0.000000e+00
7.966882e-02 4.000000e-01 0.000000e+00
7.967791e-02 3.634762e-01 0.000000e+00
7.967190e-02 3.807767e-01 0.000000e+00
1.062361e-01 3.634868e-01 0.000000e+00
1.062281e-01 3.807823e-01 0.000000e+00
7.967190e-02 3.807767e-01 0.000000e+00
7.966882e-02 4.000000e-01 0.000000e+00
1.062281e-01 3.807823e-01 0.000000e+00
1.062240e-01 4.000000e-01 0.000000e+00
1.062361e-01 3.634868e-01 0.000000e+00
1.062281e-01 3.807823e-01 0.000000e+00
1.327934e-01 3.635005e-01 0.000000e+00
1.327834e-01 3.807895e-01 0.000000e+00
1.062281e-01 3.807823e-01 0.000000e+00
1.062240e-01 4.000000e-01 0.000000e+00
1.327834e-01 3.807895e-01 0.000000e+00
1.327782e-01 4.000000e-01 0.000000e+00
1.327934e-01 3.635005e-01 0.000000e+00
1.327834e-01 3.807895e-01 0.000000e+00
1.593494e-01 3.635172e-01 0.000000e+00
1.593374e-01 3.807983e-01 0.000000e+00
1.327834e-01 3.807895e-01 0.000000e+00
1.327782e-01 4.000000e-01 0.000000e+00
1.593374e-01 3.807983e-01 0.000000e+00
1.593313e-01 4.000000e-01 0.000000e+00
1.593494e-01 3.635172e-01 0.000000e+00
1.593374e-01 3.807983e-01 0.000000e+00
1.859041e-01 3.635369e-01 0.000000e+00
1.858901e-01 3.808087e-01 0.000000e+00
1.593374e-01 3.807983e-01 0.000000e+00
1.593313e-01 4.000000e-01 0.000000e+00
1.858901e-01 3.808087e-01 0.000000e+00
1.858829e-01 4.000000e-01 0.000000e+00
1.859041e-01 3.635369e-01 0.000000e+00
1.858901e-01 3.808087e-01 0.000000e+00
2.124570e-01 3.635597e-01 0.000000e+00
2.124410e-01 3.808207e-01 0.000000e+00
1.858901e-01 3.808087e-01 0.000000e+00
1.858829e-01 4.000000e-01 0.000000e+00
2.124410e-01 3.808207e-01 0.000000e+00
2.124328e-01 4.000000e-01 0.000000e+00
2.124570e-01 3.635597e-01 0.000000e+00
2.124410e-01 3.808207e-01 0.000000e+00
2.390080e-01 3.635854e-01 0.000000e+00
2.389901e-01 3.808342e-01 0.000000e+00
2.124410e-01 3.808207e-01 0.000000e+00
2.124328e-01 4.000000e-01 0.000000e+00
2.389901e-01 3.808342e-01 0.000000e+00
2.389809e-01 4.000000e-01 0.000000e+00
2.390080e-01 3.635854e-01 0.000000e+00
2.389901e-01 3.808342e-01 0.000000e+00
2.655569e-01 3.636142e-01 0.000000e+00
2.655370e-01 3.808494e-01 0.000000e+00
2.389901e-01 3.808342e-01 0.000000e+00
2.389809e-01 4.000000e-01 0.000000e+00
2.655370e-01 3.808494e-01 0.000000e+00
2.655267e-01 4.000000e-01 0.000000e+00
2.655569e-01 3.636142e-01 0.000000e+00
2.655370e-01 3.808494e-01 0.000000e+00
2.921033e-01 3.636459e-01 0.000000e+00
2.920814e-01 3.808661e-01 0.000000e+00
2.655370e-01 3.808494e-01 0.000000e+00
2.655267e-01 4.000000e-01 0.000000e+00
2.920814e-01 3.808661e-01 0.000000e+00
2.920701e-01 4.000000e-01 0.000000e+00
2.921033e-01 3.636459e-01 0.000000e+00
2.920814e-01 3.808661e-01 0.000000e+00
3.186469e-01 3.636806e-01 0.000000e+00
3.186231e-01 3.808843e-01 0.000000e+00
2.920814e-01 3.808661e-01 0.000000e+00
2.920701e-01 4.000000e-01 0.000000e+00
3.186231e-01 3.808843e-01 0.000000e+00
3.186109e-01 4.000000e-01 0.000000e+00
3.186469e-01 3.636806e-01 0.000000e+00
3.186231e-01 3.808843e-01 0.000000e+00
3.451877e-01 3.637182e-01 0.000000e+00
3.451619e-01 3.809041e-01 0.000000e+00
3.186231e-01 3.808843e-01 0.000000e+00
3.186109e-01 4.000000e-01 0.000000e+00
3.451619e-01 3.809041e-01 0.000000e+00
3.451486e-01 4.000000e-01 0.000000e+00
3.451877e-01 3.637182e-01 0.000000e+00
3.451619e-01 3.809041e-01 0.000000e+00
3.717251e-01 3.637588e-01 0.000000e+00
3.716974e-01 3.809255e-01 0.000000e+00
3.451619e-01 3.809041e-01 0.000000e+00
3.451486e-01 4.000000e-01 0.000000e+00
3.716974e-01 3.809255e-01 0.000000e+00
3.716831e-01 4.000000e-01 0.000000e+00
3.717251e-01 3.637588e-01 0.000000e+00
3.716974e-01 3.809255e-01 0.000000e+00
3.982590e-01 3.638024e-01 0.000000e+00
3.982294e-01 3.809484e-01 0.000000e+00
3.716974e-01 3.809255e-01 0.000000e+00
3.716831e-01 4.000000e-01 0.000000e+00
3.982294e-01 3.809484e-01 0.000000e+00
3.982141e-01 4.000000e-01 0.000000e+00
3.982590e-01 3.638024e-01 0.000000e+00
3.982294e-01 3.809484e-01 0.000000e+00
4.247892e-01 3.638488e-01 0.000000e+00
4.247576e-01 3.809729e-01 0.000000e+00
3.982294e-01 3.809484e-01 0.000000e+00
3.982141e-01 4.000000e-01 0.000000e+00
4.247576e-01 3.809729e-01 0.000000e+00
4.247414e-01 4.000000e-01 0.000000e+00
4.247892e-01 3.638488e-01 0.000000e+00
4.247576e-01 3.809729e-01 0.000000e+00
4.513152e-01 3.638981e-01 0.000000e+00
4.512817e-01 3.809988e-01 0.000000e+00
4.247576e-01 3.809729e-01 0.000000e+00
4.247414e-01 4.000000e-01 0.000000e+00
4.512817e-01 3.809988e-01 0.000000e+00
4.512645e-01 4.000000e-01 0.000000e+00
4.513152e-01 3.638981e-01 0.000000e+00
4.512817e-01 3.809988e-01 0.000000e+00
4.778367e-01 3.639503e-01 0.000000e+00
4.778014e-01 3.810263e-01 0.000000e+00
4.512817e-01 3.809988e-01 0.000000e+00
4.512645e-01 4.000000e-01 0.000000e+00
4.778014e-01 3.810263e-01 0.000000e+00
4.777832e-01 4.000000e-01 0.000000e+00
4.778367e-01 3.639503e-01 0.000000e+00
4.778014e-01 3.810263e-01 0.000000e+00
5.043536e-01 3.640054e-01 0.000000e+00
5.043164e-01 3.810553e-01 0.000000e+00
4.778014e-01 3.810263e-01 0.000000e+00
4.777832e-01 4.000000e-01 0.000000e+00
5.043164e-01 3.810553e-01 0.000000e+00
5.042971e-01 4.000000e-01 0.000000e+00
5.043536e-01 3.640054e-01 0.000000e+00
5.043164e-01 3.810553e-01 0.000000e+00
5.308654e-01 3.640633e-01 0.000000e+00
5.308263e-01 3.810858e-01 0.000000e+00
5.043164e-01 3.810553e-01 0.000000e+00
5.042971e-01 4.000000e-01 0.000000e+00
5.308263e-01 3.810858e-01 0.000000e+00
5.308061e-01 4.000000e-01 0.000000e+00
5.308654e-01 3.640633e-01 0.000000e+00
5.308263e-01 3.810858e-01 0.000000e+00
5.573717e-01 3.641240e-01 0.000000e+00
5.573309e-01 3.811177e-01 0.000000e+00
5.308263e-01 3.810858e-01 0.000000e+00
5.308061e-01 4.000000e-01 0.000000e+00
5.573309e-01 3.811177e-01 0.000000e+00
5.573097e-01 4.000000e-01 0.000000e+00
5.573717e-01 3.641240e-01 0.000000e+00
5.573309e-01 3.811177e-01 0.000000e+00
5.838724e-01 3.641875e-01 0.000000e+00
5.838297e-01 3.811511e-01 0.000000e+00
5.573309e-01 3.811177e-01 0.000000e+00
5.573097e-01 4.000000e-01 0.000000e+00
5.838297e-01 3.811511e-01 0.000000e+00
5.838075e-01 4.000000e-01 0.000000e+00
5.838724e-01 3.641875e-01 0.000000e+00
5.838297e-01 3.811511e-01 0.000000e+00
6.103670e-01 3.642537e-01 0.000000e+00
6.103225e-01 3.811860e-01 0.000000e+00
5.838297e-01 3.811511e-01 0.000000e+00
5.838075e-01 4.000000e-01 0.000000e+00
6.103225e-01 3.811860e-01 0.000000e+00
6.102994e-01 4.000000e-01 0.000000e+00
6.103670e-01 3.642537e-01 0.000000e+00
6.103225e-01 3.811860e-01 0.000000e+00
6.368551e-01 3.643227e-01 0.000000e+00
6.368089e-01 3.812223e-01 0.000000e+00
6.103225e-01 3.811860e-01 0.000000e+00
6.102994e-01 4.000000e-01 0.000000e+00
6.368089e-01 3.812223e-01 0.000000e+00
6.367847e-01 4.000000e-01 0.000000e+00
6.368551e-01 3.643227e-01 0.000000e+00
6.368089e-01 3.812223e-01 0.000000e+00
6.633365e-01 3.643943e-01 0.000000e+00
6.632884e-01 3.812600e-01 0.000000e+00
6.368089e-01 3.812223e-01 0.000000e+00
6.367847e-01 4.000000e-01 0.000000e+00
6.632884e-01 3.812600e-01 0.000000e+00
6.632633e-01 4.000000e-01 0.000000e+00
6.633365e-01 3.643943e-01 0.000000e+00
6.632884e-01 3.812600e-01 0.000000e+00
6.898106e-01 3.644687e-01 0.000000e+00
6.897608e-01 3.812991e-01 0.000000e+00
6.632884e-01 3.812600e-01 0.000000e+00
6.632633e-01 4.000000e-01 0.000000e+00
6.897608e-01 3.812991e-01 0.000000e+00
6.897347e-01 4.000000e-01 0.000000e+00
6.898106e-01 3.644687e-01 0.000000e+00
6.897608e-01 3.812991e-01 0.000000e+00
7.162771e-01 3.645457e-01 0.000000e+00
7.162256e-01 3.813397e-01 0.000000e+00
6.897608e-01 3.812991e-01 0.000000e+00
6.897347e-01 4.000000e-01 0.000000e+00
7.162256e-01 3.813397e-01 0.000000e+00
7.161986e-01 4.000000e-01 0.000000e+00
7.162771e-01 3.645457e-01 0.000000e+00
7.162256e-01 3.813397e-01 0.000000e+00
7.427355e-01 3.646254e-01 0.000000e+00
7.426823e-01 3.813816e-01 0.000000e+00
7.162256e-01 3.813397e-01 0.000000e+00
7.161986e-01 4.000000e-01 0.000000e+00
7.426823e-01 3.813816e-01 0.000000e+00
7.426544e-01 4.000000e-01 0.000000e+00
7.427355e-01 3.646254e-01 0.000000e+00
7.426823e-01 3.813816e-01 0.000000e+00
7.691855e-01 3.647076e-01 0.000000e+00
7.691306e-01 3.814249e-01 0.000000e+00
7.426823e-01 3.813816e-01 0.000000e+00
7.426544e-01 4.000000e-01 0.000000e+00
7.691306e-01 3.814249e-01 0.000000e+00
7.691018e-01 4.000000e-01 0.000000e+00
7.691855e-01 3.647076e-01 0.000000e+00
7.691306e-01 3.814249e-01 0.000000e+00
7.956267e-01 3.647924e-01 0.000000e+00
7.955701e-01 3.814695e-01 0.000000e+00
7.691306e-01 3.814249e-01 0.000000e+00
7.691018e-01 4.000000e-01 0.000000e+00
7.955701e-01 3.814695e-01 0.000000e+00
7.955403e-01 4.000000e-01 0.000000e+00
7.956267e-01 3.647924e-01 0.000000e+00
7.955701e-01 3.814695e-01 0.000000e+00
8.220584e-01 3.648797e-01 0.000000e+00
8.220002e-01 3.815155e-01 0.000000e+00
7.955701e-01 3.814695e-01 0.000000e+00
7.955403e-01 4.000000e-01 0.000000e+00
8.220002e-01 3.815155e-01 0.000000e+00
8.219695e-01 4.000000e-01 0.000000e+00
8.220584e-01 3.648797e-01 0.000000e+00
[...]
<PointData>
<DataArray type="Float32" Name="V1" format="ascii">
1.551632e+01
1.221162e+01
1.551787e+01
1.221317e+01
1.222707e+01
9.611195e+00
1.222832e+01
9.612446e+00
1.551815e+01
1.221298e+01
1.552184e+01
1.221667e+01
1.222860e+01
9.612356e+00
1.223161e+01
9.615369e+00
1.552239e+01
1.221627e+01
1.552870e+01
1.222258e+01
1.223214e+01
9.615166e+00
1.223729e+01
9.620316e+00
1.552943e+01
1.222188e+01
1.553833e+01
1.223079e+01
1.223800e+01
9.619930e+00
1.224526e+01
9.627196e+00
1.553926e+01
1.222981e+01
1.555074e+01
1.224129e+01
1.224617e+01
9.626641e+00
1.225555e+01
9.636017e+00
1.555187e+01
1.224005e+01
1.556594e+01
1.225411e+01
1.225666e+01
9.635300e+00
1.226814e+01
9.646784e+00
1.556728e+01
1.225260e+01
1.558393e+01
1.226925e+01
1.226946e+01
9.645908e+00
1.228305e+01
9.659501e+00
1.558548e+01
1.226747e+01
1.560471e+01
1.228670e+01
1.228458e+01
9.658468e+00
1.230029e+01
9.674174e+00
1.560648e+01
1.228466e+01
1.562831e+01
1.230648e+01
1.230203e+01
9.672983e+00
1.231985e+01
9.690806e+00
1.563029e+01
1.230417e+01
1.565472e+01
1.232860e+01
1.232180e+01
9.689459e+00
1.234175e+01
9.709404e+00
1.565692e+01
1.232602e+01
1.568395e+01
1.235306e+01
1.234392e+01
9.707900e+00
1.236599e+01
9.729973e+00
1.568637e+01
1.235021e+01
1.571602e+01
1.237986e+01
1.236837e+01
9.728313e+00
1.239258e+01
9.752521e+00
1.571866e+01
1.237675e+01
1.575094e+01
1.240903e+01
1.239518e+01
9.750704e+00
1.242154e+01
9.777055e+00
1.575380e+01
1.240565e+01
1.578871e+01
1.244056e+01
1.242435e+01
9.775081e+00
1.245286e+01
9.803584e+00
1.579180e+01
1.243692e+01
1.582936e+01
1.247448e+01
1.245590e+01
9.801450e+00
1.248656e+01
9.832113e+00
1.583267e+01
1.247056e+01
1.587289e+01
1.251078e+01
1.248983e+01
9.829821e+00
1.252266e+01
9.862655e+00
1.587642e+01
1.250660e+01
1.591932e+01
1.254949e+01
1.252614e+01
9.860204e+00
1.256116e+01
9.895219e+00
1.592308e+01
1.254503e+01
1.596867e+01
1.259062e+01
1.256487e+01
9.892607e+00
1.260208e+01
9.929816e+00
1.597266e+01
1.258588e+01
1.602095e+01
1.263418e+01
1.260602e+01
9.927042e+00
1.264543e+01
9.966456e+00
1.602517e+01
1.262916e+01
1.607619e+01
1.268018e+01
1.264959e+01
9.963520e+00
1.269123e+01
1.000515e+01
1.608064e+01
1.267489e+01
1.613440e+01
1.272864e+01
1.269562e+01
1.000205e+01
1.273948e+01
1.004592e+01
1.613908e+01
1.272307e+01
1.619560e+01
1.277958e+01
1.274411e+01
1.004265e+01
1.279022e+01
1.008876e+01
1.620052e+01
1.277373e+01
1.625981e+01
1.283302e+01
1.279508e+01
1.008533e+01
1.284345e+01
1.013371e+01
1.626497e+01
1.282688e+01
1.632706e+01
1.288897e+01
1.284855e+01
1.013011e+01
1.289920e+01
1.018076e+01
1.633245e+01
1.288254e+01
1.639736e+01
1.294745e+01
1.290453e+01
1.017700e+01
1.295748e+01
1.022994e+01
1.640300e+01
1.294073e+01
1.647075e+01
1.300848e+01
1.296305e+01
1.022601e+01
1.301831e+01
1.028127e+01
1.647664e+01
1.300148e+01
1.654725e+01
1.307209e+01
1.302412e+01
1.027716e+01
1.308172e+01
1.033475e+01
1.655339e+01
1.306479e+01
1.662689e+01
1.313830e+01
1.308777e+01
1.033047e+01
1.314772e+01
1.039042e+01
1.663327e+01
1.313069e+01
1.670969e+01
1.320712e+01
1.315402e+01
1.038596e+01
1.321633e+01
1.044827e+01
1.671632e+01
1.319921e+01
1.679569e+01
1.327858e+01
1.322288e+01
1.044364e+01
1.328759e+01
1.050835e+01
1.680257e+01
1.327037e+01
1.688490e+01
1.335271e+01
1.329440e+01
1.050354e+01
1.336152e+01
1.057066e+01
1.689205e+01
1.334420e+01
1.697738e+01
1.342953e+01
1.336858e+01
1.056567e+01
1.343814e+01
1.063523e+01
1.698478e+01
1.342071e+01
1.707314e+01
1.350906e+01
1.344545e+01
1.063005e+01
1.351747e+01
1.070207e+01
1.708080e+01
1.349993e+01
1.717222e+01
1.359135e+01
1.352505e+01
1.069671e+01
1.359955e+01
1.077122e+01
1.718014e+01
1.358190e+01
1.727465e+01
1.367641e+01
1.360739e+01
1.076567e+01
1.368441e+01
1.084269e+01
1.728285e+01
1.366664e+01
1.738048e+01
1.376427e+01
1.369251e+01
1.083696e+01
1.377207e+01
1.091651e+01
1.738895e+01
1.375417e+01
1.748974e+01
1.385497e+01
1.378044e+01
1.091058e+01
1.386256e+01
1.099270e+01
1.749848e+01
1.384454e+01
1.760247e+01
1.394853e+01
1.387121e+01
1.098659e+01
1.395592e+01
1.107130e+01
1.761149e+01
1.393778e+01
1.771870e+01
1.404499e+01
1.396484e+01
1.106498e+01
1.405217e+01
1.115232e+01
1.772800e+01
1.403390e+01
1.783848e+01
1.414438e+01
1.406138e+01
1.114581e+01
1.415136e+01
1.123580e+01
1.784807e+01
1.413296e+01
1.796186e+01
1.424674e+01
1.416085e+01
1.122908e+01
1.425352e+01
1.132176e+01
1.797173e+01
1.423497e+01
1.808887e+01
1.435211e+01
1.426329e+01
1.131484e+01
1.435868e+01
1.141023e+01
1.809903e+01
1.433999e+01
1.821956e+01
1.446052e+01
1.436874e+01
1.140311e+01
1.446687e+01
1.150124e+01
1.823002e+01
1.444804e+01
1.835397e+01
1.457200e+01
1.447723e+01
1.149392e+01
1.457815e+01
1.159484e+01
1.836474e+01
1.455917e+01
1.849217e+01
1.468660e+01
1.458880e+01
1.158730e+01
1.469254e+01
1.169104e+01
1.850323e+01
1.467342e+01
1.863418e+01
1.480437e+01
1.470350e+01
1.168329e+01
1.481010e+01
1.178989e+01
1.864555e+01
1.479081e+01
1.878007e+01
1.492533e+01
1.482136e+01
1.178192e+01
1.493085e+01
1.189141e+01
1.879175e+01
1.491141e+01
1.892988e+01
1.504954e+01
1.494242e+01
1.188323e+01
1.505485e+01
1.199566e+01
1.894187e+01
1.503524e+01
1.908366e+01
1.517703e+01
1.506673e+01
1.198725e+01
1.518215e+01
1.210267e+01
1.909596e+01
1.516237e+01
1.924145e+01
1.530786e+01
1.519434e+01
1.209403e+01
1.531278e+01
1.221247e+01
1.925407e+01
1.529282e+01
1.940332e+01
1.544207e+01
1.532528e+01
1.220362e+01
1.544680e+01
1.232514e+01
1.941624e+01
1.542666e+01
1.956928e+01
1.557970e+01
1.545962e+01
1.231606e+01
1.558427e+01
1.244071e+01
1.958250e+01
1.556394e+01
1.973936e+01
1.572079e+01
1.559739e+01
1.243142e+01
1.572524e+01
1.255927e+01
1.975287e+01
1.570470e+01
1.991356e+01
1.586540e+01
1.573866e+01
1.254976e+01
1.586979e+01
1.268090e+01
1.992732e+01
1.584902e+01
2.009185e+01
1.601355e+01
1.588347e+01
1.267120e+01
1.601799e+01
1.280572e+01
2.010579e+01
1.599695e+01
2.027410e+01
1.616527e+01
1.603188e+01
1.279586e+01
1.616995e+01
1.293392e+01
2.028812e+01
1.614859e+01
2.046010e+01
1.632056e+01
1.618397e+01
1.292395e+01
1.632579e+01
1.306577e+01
2.047402e+01
1.630402e+01
2.064942e+01
1.647942e+01
1.633980e+01
1.305577e+01
1.648571e+01
1.320168e+01
2.066293e+01
1.646339e+01
2.084130e+01
1.664176e+01
1.649946e+01
1.319181e+01
1.664997e+01
1.334233e+01
2.085389e+01
1.662688e+01
2.103445e+01
1.680743e+01
1.666306e+01
1.333284e+01
1.681901e+01
1.348879e+01
2.104525e+01
1.679476e+01
2.122662e+01
1.697613e+01
1.683073e+01
1.348011e+01
1.699348e+01
1.364285e+01
2.123417e+01
1.696746e+01
2.141406e+01
1.714736e+01
1.700270e+01
1.363567e+01
1.717445e+01
1.380743e+01
2.141586e+01
1.714571e+01
2.159041e+01
1.732025e+01
1.717926e+01
1.380293e+01
1.736367e+01
1.398735e+01
2.158229e+01
1.733071e+01
2.174507e+01
1.749350e+01
1.736090e+01
1.398748e+01
1.756395e+01
1.419053e+01
2.171999e+01
1.752458e+01
2.186057e+01
1.766516e+01
1.754826e+01
1.419862e+01
1.777957e+01
1.442994e+01
2.180695e+01
1.773085e+01
2.190878e+01
1.783268e+01
1.774175e+01
1.445203e+01
1.801619e+01
1.472647e+01
2.180881e+01
1.795456e+01
2.184714e+01
1.799288e+01
1.793926e+01
1.477484e+01
1.827703e+01
1.511261e+01
2.167926e+01
1.819777e+01
2.162168e+01
1.814018e+01
1.812640e+01
1.521657e+01
1.854370e+01
1.563386e+01
2.138156e+01
1.843278e+01
2.120922e+01
1.826045e+01
1.824395e+01
1.587063e+01
1.870206e+01
1.632874e+01
2.090608e+01
1.861521e+01
2.074735e+01
1.845647e+01
1.819943e+01
1.670211e+01
1.859913e+01
1.710181e+01
2.052249e+01
1.871847e+01
2.050868e+01
1.870466e+01
1.838927e+01
1.727871e+01
1.876506e+01
1.765450e+01
2.036816e+01
1.887478e+01
2.044756e+01
1.895419e+01
1.867315e+01
1.770828e+01
1.897899e+01
1.801411e+01
2.037419e+01
1.904353e+01
2.050752e+01
1.917686e+01
1.892664e+01
1.804532e+01
1.918569e+01
1.830437e+01
2.047200e+01
1.922103e+01
2.063661e+01
1.938564e+01
1.915798e+01
1.832095e+01
1.938583e+01
1.854880e+01
2.062254e+01
1.940385e+01
2.080422e+01
1.958553e+01
1.937462e+01
1.855503e+01
1.958088e+01
1.876129e+01
2.080262e+01
1.958848e+01
2.099214e+01
1.977801e+01
1.958033e+01
1.876067e+01
1.977075e+01
1.895109e+01
2.099783e+01
1.977195e+01
2.118907e+01
1.996320e+01
1.977680e+01
1.894619e+01
1.995472e+01
1.912411e+01
2.119895e+01
1.995192e+01
2.138774e+01
2.014071e+01
1.996467e+01
1.911668e+01
2.013190e+01
1.928390e+01
2.139989e+01
2.012657e+01
2.158331e+01
2.030999e+01
2.014399e+01
1.927510e+01
2.030142e+01
1.943252e+01
2.159651e+01
2.029448e+01
2.177245e+01
2.047042e+01
2.031451e+01
1.942310e+01
2.046246e+01
1.957105e+01
2.178595e+01
2.045450e+01
2.195284e+01
2.062139e+01
2.047582e+01
1.956150e+01
2.061430e+01
1.969998e+01
2.196612e+01
2.060568e+01
2.212275e+01
2.076232e+01
2.062743e+01
1.969062e+01
2.075628e+01
1.981947e+01
2.213548e+01
2.074724e+01
2.228091e+01
2.089267e+01
2.076886e+01
1.981053e+01
2.088780e+01
1.992947e+01
2.229286e+01
2.087849e+01
2.242631e+01
2.101195e+01
2.089961e+01
1.992108e+01
2.100833e+01
2.002981e+01
2.243733e+01
2.099887e+01
2.255818e+01
2.111972e+01
2.101922e+01
2.002208e+01
2.111743e+01
2.012029e+01
2.256816e+01
2.110788e+01
2.267588e+01
2.121560e+01
2.112729e+01
2.011330e+01
2.121467e+01
2.020069e+01
2.268474e+01
2.120508e+01
2.277890e+01
2.129925e+01
2.122342e+01
2.019449e+01
2.129972e+01
2.027078e+01
2.278657e+01
2.129013e+01
2.286682e+01
2.137038e+01
2.130731e+01
2.026541e+01
2.137228e+01
2.033038e+01
2.287327e+01
2.136271e+01
2.293931e+01
2.142875e+01
2.137865e+01
2.032586e+01
2.143209e+01
2.037930e+01
2.294451e+01
2.142257e+01
2.299611e+01
2.147417e+01
2.143722e+01
2.037566e+01
2.147896e+01
2.041739e+01
2.300002e+01
2.146952e+01
2.303700e+01
2.150650e+01
2.148283e+01
2.041465e+01
2.151273e+01
2.044456e+01
2.303962e+01
2.150338e+01
2.306186e+01
2.152562e+01
2.151532e+01
2.044272e+01
2.153330e+01
2.046070e+01
2.306317e+01
2.152406e+01
2.307059e+01
2.153148e+01
2.153460e+01
2.045978e+01
2.154060e+01
2.046578e+01
</DataArray>
<DataArray type="Float32" Name="V2" format="ascii">
3.634624e-01
3.807695e-01
3.638607e-01
3.811645e-01
3.807695e-01
4.000000e-01
3.811645e-01
4.003915e-01
3.638607e-01
3.811645e-01
3.650553e-01
3.823494e-01
3.811645e-01
4.003915e-01
3.823494e-01
4.015656e-01
3.650553e-01
3.823494e-01
3.670453e-01
3.843233e-01
3.823494e-01
4.015656e-01
3.843233e-01
4.035218e-01
3.670453e-01
3.843233e-01
3.698295e-01
3.870850e-01
3.843233e-01
4.035218e-01
3.870850e-01
4.062586e-01
3.698295e-01
3.870850e-01
3.734063e-01
3.906328e-01
3.870850e-01
4.062586e-01
3.906328e-01
4.097744e-01
3.734063e-01
3.906328e-01
3.777732e-01
3.949645e-01
3.906328e-01
4.097744e-01
3.949645e-01
4.140670e-01
3.777732e-01
3.949645e-01
3.829276e-01
4.000772e-01
3.949645e-01
4.140670e-01
4.000772e-01
4.191336e-01
3.829276e-01
4.000772e-01
3.888662e-01
4.059677e-01
4.000772e-01
4.191336e-01
4.059677e-01
4.249711e-01
3.888662e-01
4.059677e-01
3.955851e-01
4.126323e-01
4.059677e-01
4.249711e-01
4.126323e-01
4.315757e-01
3.955851e-01
4.126323e-01
4.030802e-01
4.200668e-01
4.126323e-01
4.315757e-01
4.200668e-01
4.389432e-01
4.030802e-01
4.200668e-01
4.113466e-01
4.282664e-01
4.200668e-01
4.389432e-01
4.282664e-01
4.470690e-01
4.113466e-01
4.282664e-01
4.203792e-01
4.372260e-01
4.282664e-01
4.470690e-01
4.372260e-01
4.559479e-01
4.203792e-01
4.372260e-01
4.301721e-01
4.469397e-01
4.372260e-01
4.559479e-01
4.469397e-01
4.655742e-01
4.301721e-01
4.469397e-01
4.407190e-01
4.574015e-01
4.469397e-01
4.655742e-01
4.574015e-01
4.759419e-01
4.407190e-01
4.574015e-01
4.520134e-01
4.686047e-01
4.574015e-01
4.759419e-01
4.686047e-01
4.870442e-01
4.520134e-01
4.686047e-01
4.640479e-01
4.805420e-01
4.686047e-01
4.870442e-01
4.805420e-01
4.988742e-01
4.640479e-01
4.805420e-01
4.768148e-01
4.932059e-01
4.805420e-01
4.988742e-01
4.932059e-01
5.114243e-01
4.768148e-01
4.932059e-01
4.903060e-01
5.065883e-01
4.932059e-01
5.114243e-01
5.065883e-01
5.246864e-01
4.903060e-01
5.065883e-01
5.045128e-01
5.206805e-01
5.065883e-01
5.246864e-01
5.206805e-01
5.386520e-01
5.045128e-01
5.206805e-01
5.194261e-01
5.354736e-01
5.206805e-01
5.386520e-01
5.354736e-01
5.533121e-01
5.194261e-01
5.354736e-01
5.350362e-01
5.509579e-01
5.354736e-01
5.533121e-01
5.509579e-01
5.686574e-01
5.350362e-01
5.509579e-01
5.513331e-01
5.671235e-01
5.509579e-01
5.686574e-01
5.671235e-01
5.846780e-01
5.513331e-01
5.671235e-01
5.683063e-01
5.839600e-01
5.671235e-01
5.846780e-01
5.839600e-01
6.013634e-01
5.683063e-01
5.839600e-01
5.859447e-01
6.014565e-01
5.839600e-01
6.013634e-01
6.014565e-01
6.187029e-01
5.859447e-01
6.014565e-01
6.042370e-01
6.196016e-01
6.014565e-01
6.187029e-01
6.196016e-01
6.366853e-01
6.042370e-01
6.196016e-01
6.231712e-01
6.383835e-01
6.196016e-01
6.366853e-01
6.383835e-01
6.552989e-01
6.231712e-01
6.383835e-01
6.427350e-01
6.577900e-01
6.383835e-01
6.552989e-01
6.577900e-01
6.745315e-01
6.427350e-01
6.577900e-01
6.629157e-01
6.778085e-01
6.577900e-01
6.745315e-01
6.778085e-01
6.943706e-01
6.629157e-01
6.778085e-01
6.836999e-01
6.984257e-01
6.778085e-01
6.943706e-01
6.984257e-01
7.148032e-01
6.836999e-01
6.984257e-01
7.050742e-01
7.196283e-01
6.984257e-01
7.148032e-01
7.196283e-01
7.358159e-01
7.050742e-01
7.196283e-01
7.270243e-01
7.414022e-01
7.196283e-01
7.358159e-01
7.414022e-01
7.573949e-01
7.270243e-01
7.414022e-01
7.495359e-01
7.637331e-01
7.414022e-01
7.573949e-01
7.637331e-01
7.795259e-01
7.495359e-01
7.637331e-01
7.725940e-01
7.866061e-01
7.637331e-01
7.795259e-01
7.866061e-01
8.021944e-01
7.725940e-01
7.866061e-01
7.961833e-01
8.100062e-01
7.866061e-01
8.021944e-01
8.100062e-01
8.253851e-01
7.961833e-01
8.100062e-01
8.202881e-01
8.339177e-01
8.100062e-01
8.253851e-01
8.339177e-01
8.490828e-01
8.202881e-01
8.339177e-01
8.448924e-01
8.583247e-01
8.339177e-01
8.490828e-01
8.583247e-01
8.732715e-01
8.448924e-01
8.583247e-01
8.699797e-01
8.832108e-01
8.583247e-01
8.732715e-01
8.832108e-01
8.979351e-01
8.699797e-01
8.832108e-01
8.955330e-01
9.085592e-01
8.832108e-01
8.979351e-01
9.085592e-01
9.230569e-01
8.955330e-01
9.085592e-01
9.215352e-01
9.343530e-01
9.085592e-01
9.230569e-01
9.343530e-01
9.486200e-01
9.215352e-01
9.343530e-01
9.479687e-01
9.605745e-01
9.343530e-01
9.486200e-01
9.605745e-01
9.746072e-01
9.479687e-01
9.605745e-01
9.748154e-01
9.872061e-01
9.605745e-01
9.746072e-01
9.872061e-01
1.001001e+00
9.748154e-01
9.872061e-01
1.002057e+00
1.014229e+00
9.872061e-01
1.001001e+00
1.014229e+00
1.027782e+00
1.002057e+00
1.014229e+00
1.029675e+00
1.041626e+00
1.014229e+00
1.027782e+00
1.041626e+00
1.054934e+00
1.029675e+00
1.041626e+00
1.057651e+00
1.069377e+00
1.041626e+00
1.054934e+00
1.069377e+00
1.082437e+00
1.057651e+00
1.069377e+00
1.085964e+00
1.097463e+00
1.069377e+00
1.082437e+00
1.097463e+00
1.110271e+00
1.085964e+00
1.097463e+00
1.114596e+00
1.125866e+00
1.097463e+00
1.110271e+00
1.125866e+00
1.138419e+00
1.114596e+00
1.125866e+00
1.143527e+00
1.154564e+00
1.125866e+00
1.138419e+00
1.154564e+00
1.166860e+00
1.143527e+00
1.154564e+00
1.172735e+00
1.183538e+00
1.154564e+00
1.166860e+00
1.183538e+00
1.195574e+00
1.172735e+00
1.183538e+00
1.202201e+00
1.212767e+00
1.183538e+00
1.195574e+00
1.212767e+00
1.224542e+00
1.202201e+00
1.212767e+00
1.231905e+00
1.242231e+00
1.212767e+00
1.224542e+00
1.242231e+00
1.253741e+00
1.231905e+00
1.242231e+00
1.261824e+00
1.271909e+00
1.242231e+00
1.253741e+00
1.271909e+00
1.283153e+00
1.261824e+00
1.271909e+00
1.291937e+00
1.301780e+00
1.271909e+00
1.283153e+00
1.301780e+00
1.312755e+00
1.291937e+00
1.301780e+00
1.322223e+00
1.331822e+00
1.301780e+00
1.312755e+00
1.331822e+00
1.342526e+00
1.322223e+00
1.331822e+00
1.352660e+00
1.362014e+00
1.331822e+00
1.342526e+00
1.362014e+00
1.372446e+00
1.352660e+00
1.362014e+00
1.383226e+00
1.392333e+00
1.362014e+00
1.372446e+00
1.392333e+00
1.402491e+00
1.383226e+00
1.392333e+00
1.413897e+00
1.422757e+00
1.392333e+00
1.402491e+00
1.422757e+00
1.432641e+00
1.413897e+00
1.422757e+00
1.444653e+00
1.453265e+00
1.422757e+00
1.432641e+00
1.453265e+00
1.462874e+00
1.444653e+00
1.453265e+00
1.475468e+00
1.483834e+00
1.453265e+00
1.462874e+00
1.483834e+00
1.493168e+00
1.475468e+00
1.483834e+00
1.506320e+00
1.514440e+00
1.483834e+00
1.493168e+00
1.514440e+00
1.523500e+00
1.506320e+00
1.514440e+00
1.537184e+00
1.545063e+00
1.514440e+00
1.523500e+00
1.545063e+00
1.553851e+00
1.537184e+00
1.545063e+00
1.568034e+00
1.575678e+00
1.545063e+00
1.553851e+00
1.575678e+00
1.584200e+00
1.568034e+00
1.575678e+00
1.598844e+00
1.606265e+00
1.575678e+00
1.584200e+00
1.606265e+00
1.614528e+00
1.598844e+00
1.606265e+00
1.629583e+00
1.636800e+00
1.606265e+00
1.614528e+00
1.636800e+00
1.644820e+00
1.629583e+00
1.636800e+00
1.660216e+00
1.667263e+00
1.636800e+00
1.644820e+00
1.667263e+00
1.675064e+00
1.660216e+00
1.667263e+00
1.690700e+00
1.697632e+00
1.667263e+00
1.675064e+00
1.697632e+00
1.705257e+00
1.690700e+00
1.697632e+00
1.720978e+00
1.727882e+00
1.697632e+00
1.705257e+00
1.727882e+00
1.735404e+00
1.720978e+00
1.727882e+00
1.750963e+00
1.757974e+00
1.727882e+00
1.735404e+00
1.757974e+00
1.765513e+00
1.750963e+00
1.757974e+00
1.780514e+00
1.787805e+00
1.757974e+00
1.765513e+00
1.787805e+00
1.795568e+00
1.780514e+00
1.787805e+00
1.809389e+00
1.817067e+00
1.787805e+00
1.795568e+00
1.817067e+00
1.825360e+00
1.809389e+00
1.817067e+00
1.837266e+00
1.845225e+00
1.817067e+00
1.825360e+00
1.845225e+00
1.853739e+00
1.837266e+00
1.845225e+00
1.863924e+00
1.872176e+00
1.845225e+00
1.853739e+00
1.872176e+00
1.881008e+00
1.863924e+00
1.872176e+00
1.889394e+00
1.898068e+00
1.872176e+00
1.881008e+00
1.898068e+00
1.907352e+00
1.889394e+00
1.898068e+00
1.913713e+00
1.922876e+00
1.898068e+00
1.907352e+00
1.922876e+00
1.932667e+00
1.913713e+00
1.922876e+00
1.936895e+00
1.946564e+00
1.922876e+00
1.932667e+00
1.946564e+00
1.956880e+00
1.936895e+00
1.946564e+00
1.958938e+00
1.969105e+00
1.946564e+00
1.956880e+00
1.969105e+00
1.979939e+00
1.958938e+00
1.969105e+00
1.979835e+00
1.990478e+00
1.969105e+00
1.979939e+00
1.990478e+00
2.001810e+00
1.979835e+00
1.990478e+00
1.999577e+00
2.010665e+00
1.990478e+00
2.001810e+00
2.010665e+00
2.022466e+00
1.999577e+00
2.010665e+00
2.018152e+00
2.029654e+00
2.010665e+00
2.022466e+00
2.029654e+00
2.041892e+00
2.018152e+00
2.029654e+00
2.035554e+00
2.047435e+00
2.029654e+00
2.041892e+00
2.047435e+00
2.060075e+00
2.035554e+00
2.047435e+00
2.051773e+00
2.064001e+00
2.047435e+00
2.060075e+00
2.064001e+00
2.077008e+00
2.051773e+00
2.064001e+00
2.066804e+00
2.079346e+00
2.064001e+00
2.077008e+00
2.079346e+00
2.092686e+00
2.066804e+00
2.079346e+00
2.080641e+00
2.093466e+00
2.079346e+00
2.092686e+00
2.093466e+00
2.107106e+00
2.080641e+00
2.093466e+00
2.093282e+00
2.106359e+00
2.093466e+00
2.107106e+00
2.106359e+00
2.120269e+00
2.093282e+00
2.106359e+00
2.104723e+00
2.118023e+00
2.106359e+00
2.120269e+00
2.118023e+00
2.132172e+00
2.104723e+00
2.118023e+00
2.114961e+00
2.128458e+00
2.118023e+00
2.132172e+00
2.128458e+00
2.142817e+00
2.114961e+00
2.128458e+00
2.123996e+00
2.137664e+00
2.128458e+00
2.142817e+00
2.137664e+00
2.152205e+00
2.123996e+00
2.137664e+00
2.131828e+00
2.145641e+00
2.137664e+00
2.152205e+00
2.145641e+00
2.160337e+00
2.131828e+00
2.145641e+00
2.138454e+00
2.152389e+00
2.145641e+00
2.160337e+00
2.152389e+00
2.167216e+00
2.138454e+00
2.152389e+00
2.143876e+00
2.157909e+00
2.152389e+00
2.167216e+00
2.157909e+00
2.172841e+00
2.143876e+00
2.157909e+00
2.148093e+00
2.162202e+00
2.157909e+00
2.172841e+00
2.162202e+00
2.177215e+00
2.148093e+00
2.162202e+00
2.151105e+00
2.165267e+00
2.162202e+00
2.177215e+00
2.165267e+00
2.180338e+00
2.151105e+00
2.165267e+00
2.152912e+00
2.167106e+00
2.165267e+00
2.180338e+00
2.167106e+00
2.182212e+00
2.152912e+00
2.167106e+00
2.153514e+00
2.167720e+00
2.167106e+00
2.182212e+00
2.167720e+00
2.182836e+00
</DataArray>
<DataArray type="Float32" Name="V3" format="ascii">
0.000000e+00
0.000000e+00
2.041709e-02
2.012281e-02
0.000000e+00
0.000000e+00
2.012281e-02
1.979700e-02
2.041709e-02
2.012281e-02
4.081285e-02
4.022441e-02
2.012281e-02
1.979700e-02
4.022441e-02
3.957297e-02
4.081285e-02
4.022441e-02
6.116588e-02
6.028362e-02
4.022441e-02
3.957297e-02
6.028362e-02
5.930689e-02
6.116588e-02
6.028362e-02
8.145484e-02
8.027924e-02
6.028362e-02
5.930689e-02
8.027924e-02
7.897775e-02
8.145484e-02
8.027924e-02
1.016584e-01