<?xml version="1.0"?>
<VTKFile type="UnstructuredGrid" version="0.1" byte_order="LittleEndian" compressor="vtkZLibDataCompressor">
<UnstructuredGrid>
<Piece NumberOfPoints="504" NumberOfCells="126">
<Points>
<DataArray type="Float32" NumberOfComponents="3" format="ascii">
0.000000e+00 4.450591e-01 0.000000e+00
0.000000e+00 4.723175e-01 0.000000e+00
3.672279e-02 4.450672e-01 0.000000e+00
3.671695e-02 4.723199e-01 0.000000e+00
0.000000e+00 4.723175e-01 0.000000e+00
0.000000e+00 5.043750e-01 0.000000e+00
3.671695e-02 4.723199e-01 0.000000e+00
3.671400e-02 5.043750e-01 0.000000e+00
3.672279e-02 4.450672e-01 0.000000e+00
3.671695e-02 4.723199e-01 0.000000e+00
7.344457e-02 4.450818e-01 0.000000e+00
7.343283e-02 4.723278e-01 0.000000e+00
3.671695e-02 4.723199e-01 0.000000e+00
3.671400e-02 5.043750e-01 0.000000e+00
7.343283e-02 4.723278e-01 0.000000e+00
7.342683e-02 5.043750e-01 0.000000e+00
7.344457e-02 4.450818e-01 0.000000e+00
7.343283e-02 4.723278e-01 0.000000e+00
1.101640e-01 4.451062e-01 0.000000e+00
1.101464e-01 4.723411e-01 0.000000e+00
7.343283e-02 4.723278e-01 0.000000e+00
7.342683e-02 5.043750e-01 0.000000e+00
1.101464e-01 4.723411e-01 0.000000e+00
1.101374e-01 5.043750e-01 0.000000e+00
1.101640e-01 4.451062e-01 0.000000e+00
1.101464e-01 4.723411e-01 0.000000e+00
1.468798e-01 4.451404e-01 0.000000e+00
1.468564e-01 4.723596e-01 0.000000e+00
1.101464e-01 4.723411e-01 0.000000e+00
1.101374e-01 5.043750e-01 0.000000e+00
1.468564e-01 4.723596e-01 0.000000e+00
1.468444e-01 5.043750e-01 0.000000e+00
1.468798e-01 4.451404e-01 0.000000e+00
1.468564e-01 4.723596e-01 0.000000e+00
1.835908e-01 4.451843e-01 0.000000e+00
1.835616e-01 4.723833e-01 0.000000e+00
1.468564e-01 4.723596e-01 0.000000e+00
1.468444e-01 5.043750e-01 0.000000e+00
1.835616e-01 4.723833e-01 0.000000e+00
1.835468e-01 5.043750e-01 0.000000e+00
1.835908e-01 4.451843e-01 0.000000e+00
1.835616e-01 4.723833e-01 0.000000e+00
2.202958e-01 4.452378e-01 0.000000e+00
2.202610e-01 4.724123e-01 0.000000e+00
1.835616e-01 4.723833e-01 0.000000e+00
1.835468e-01 5.043750e-01 0.000000e+00
2.202610e-01 4.724123e-01 0.000000e+00
2.202433e-01 5.043750e-01 0.000000e+00
2.202958e-01 4.452378e-01 0.000000e+00
2.202610e-01 4.724123e-01 0.000000e+00
2.569936e-01 4.453010e-01 0.000000e+00
2.569533e-01 4.724466e-01 0.000000e+00
2.202610e-01 4.724123e-01 0.000000e+00
2.202433e-01 5.043750e-01 0.000000e+00
2.569533e-01 4.724466e-01 0.000000e+00
2.569329e-01 5.043750e-01 0.000000e+00
2.569936e-01 4.453010e-01 0.000000e+00
2.569533e-01 4.724466e-01 0.000000e+00
2.936829e-01 4.453738e-01 0.000000e+00
2.936372e-01 4.724860e-01 0.000000e+00
2.569533e-01 4.724466e-01 0.000000e+00
2.569329e-01 5.043750e-01 0.000000e+00
2.936372e-01 4.724860e-01 0.000000e+00
2.936141e-01 5.043750e-01 0.000000e+00
2.936829e-01 4.453738e-01 0.000000e+00
2.936372e-01 4.724860e-01 0.000000e+00
3.303625e-01 4.454562e-01 0.000000e+00
3.303115e-01 4.725306e-01 0.000000e+00
2.936372e-01 4.724860e-01 0.000000e+00
2.936141e-01 5.043750e-01 0.000000e+00
3.303115e-01 4.725306e-01 0.000000e+00
3.302859e-01 5.043750e-01 0.000000e+00
3.303625e-01 4.454562e-01 0.000000e+00
3.303115e-01 4.725306e-01 0.000000e+00
3.670310e-01 4.455480e-01 0.000000e+00
3.669749e-01 4.725803e-01 0.000000e+00
3.303115e-01 4.725306e-01 0.000000e+00
3.302859e-01 5.043750e-01 0.000000e+00
3.669749e-01 4.725803e-01 0.000000e+00
3.669470e-01 5.043750e-01 0.000000e+00
3.670310e-01 4.455480e-01 0.000000e+00
3.669749e-01 4.725803e-01 0.000000e+00
4.036872e-01 4.456492e-01 0.000000e+00
4.036262e-01 4.726352e-01 0.000000e+00
3.669749e-01 4.725803e-01 0.000000e+00
3.669470e-01 5.043750e-01 0.000000e+00
4.036262e-01 4.726352e-01 0.000000e+00
4.035960e-01 5.043750e-01 0.000000e+00
4.036872e-01 4.456492e-01 0.000000e+00
4.036262e-01 4.726352e-01 0.000000e+00
4.403296e-01 4.457598e-01 0.000000e+00
4.402639e-01 4.726951e-01 0.000000e+00
4.036262e-01 4.726352e-01 0.000000e+00
4.035960e-01 5.043750e-01 0.000000e+00
4.402639e-01 4.726951e-01 0.000000e+00
4.402318e-01 5.043750e-01 0.000000e+00
4.403296e-01 4.457598e-01 0.000000e+00
4.402639e-01 4.726951e-01 0.000000e+00
4.769569e-01 4.458797e-01 0.000000e+00
4.768868e-01 4.727601e-01 0.000000e+00
4.402639e-01 4.726951e-01 0.000000e+00
4.402318e-01 5.043750e-01 0.000000e+00
4.768868e-01 4.727601e-01 0.000000e+00
4.768530e-01 5.043750e-01 0.000000e+00
4.769569e-01 4.458797e-01 0.000000e+00
4.768868e-01 4.727601e-01 0.000000e+00
5.135676e-01 4.460087e-01 0.000000e+00
5.134935e-01 4.728300e-01 0.000000e+00
4.768868e-01 4.727601e-01 0.000000e+00
4.768530e-01 5.043750e-01 0.000000e+00
5.134935e-01 4.728300e-01 0.000000e+00
5.134583e-01 5.043750e-01 0.000000e+00
5.135676e-01 4.460087e-01 0.000000e+00
5.134935e-01 4.728300e-01 0.000000e+00
5.501603e-01 4.461467e-01 0.000000e+00
5.500826e-01 4.729049e-01 0.000000e+00
5.134935e-01 4.728300e-01 0.000000e+00
5.134583e-01 5.043750e-01 0.000000e+00
5.500826e-01 4.729049e-01 0.000000e+00
5.500463e-01 5.043750e-01 0.000000e+00
5.501603e-01 4.461467e-01 0.000000e+00
5.500826e-01 4.729049e-01 0.000000e+00
5.867333e-01 4.462938e-01 0.000000e+00
5.866525e-01 4.729847e-01 0.000000e+00
5.500826e-01 4.729049e-01 0.000000e+00
5.500463e-01 5.043750e-01 0.000000e+00
5.866525e-01 4.729847e-01 0.000000e+00
5.866156e-01 5.043750e-01 0.000000e+00
5.867333e-01 4.462938e-01 0.000000e+00
5.866525e-01 4.729847e-01 0.000000e+00
6.232852e-01 4.464498e-01 0.000000e+00
6.232018e-01 4.730694e-01 0.000000e+00
5.866525e-01 4.729847e-01 0.000000e+00
5.866156e-01 5.043750e-01 0.000000e+00
6.232018e-01 4.730694e-01 0.000000e+00
6.231649e-01 5.043750e-01 0.000000e+00
6.232852e-01 4.464498e-01 0.000000e+00
6.232018e-01 4.730694e-01 0.000000e+00
6.598141e-01 4.466145e-01 0.000000e+00
6.597289e-01 4.731589e-01 0.000000e+00
6.232018e-01 4.730694e-01 0.000000e+00
6.231649e-01 5.043750e-01 0.000000e+00
6.597289e-01 4.731589e-01 0.000000e+00
6.596927e-01 5.043750e-01 0.000000e+00
6.598141e-01 4.466145e-01 0.000000e+00
6.597289e-01 4.731589e-01 0.000000e+00
6.963184e-01 4.467878e-01 0.000000e+00
6.962323e-01 4.732532e-01 0.000000e+00
6.597289e-01 4.731589e-01 0.000000e+00
6.596927e-01 5.043750e-01 0.000000e+00
6.962323e-01 4.732532e-01 0.000000e+00
6.961976e-01 5.043750e-01 0.000000e+00
6.963184e-01 4.467878e-01 0.000000e+00
6.962323e-01 4.732532e-01 0.000000e+00
7.327962e-01 4.469698e-01 0.000000e+00
7.327103e-01 4.733523e-01 0.000000e+00
6.962323e-01 4.732532e-01 0.000000e+00
6.961976e-01 5.043750e-01 0.000000e+00
7.327103e-01 4.733523e-01 0.000000e+00
7.326782e-01 5.043750e-01 0.000000e+00
7.327962e-01 4.469698e-01 0.000000e+00
7.327103e-01 4.733523e-01 0.000000e+00
7.692456e-01 4.471602e-01 0.000000e+00
7.691613e-01 4.734561e-01 0.000000e+00
7.327103e-01 4.733523e-01 0.000000e+00
7.326782e-01 5.043750e-01 0.000000e+00
7.691613e-01 4.734561e-01 0.000000e+00
7.691331e-01 5.043750e-01 0.000000e+00
7.692456e-01 4.471602e-01 0.000000e+00
7.691613e-01 4.734561e-01 0.000000e+00
8.056646e-01 4.473589e-01 0.000000e+00
8.055835e-01 4.735646e-01 0.000000e+00
7.691613e-01 4.734561e-01 0.000000e+00
7.691331e-01 5.043750e-01 0.000000e+00
8.055835e-01 4.735646e-01 0.000000e+00
8.055609e-01 5.043750e-01 0.000000e+00
8.056646e-01 4.473589e-01 0.000000e+00
8.055835e-01 4.735646e-01 0.000000e+00
8.420508e-01 4.475658e-01 0.000000e+00
8.419752e-01 4.736778e-01 0.000000e+00
8.055835e-01 4.735646e-01 0.000000e+00
8.055609e-01 5.043750e-01 0.000000e+00
8.419752e-01 4.736778e-01 0.000000e+00
8.419602e-01 5.043750e-01 0.000000e+00
8.420508e-01 4.475658e-01 0.000000e+00
8.419752e-01 4.736778e-01 0.000000e+00
8.784020e-01 4.477809e-01 0.000000e+00
8.783346e-01 4.737958e-01 0.000000e+00
8.419752e-01 4.736778e-01 0.000000e+00
8.419602e-01 5.043750e-01 0.000000e+00
8.783346e-01 4.737958e-01 0.000000e+00
8.783300e-01 5.043750e-01 0.000000e+00
8.784020e-01 4.477809e-01 0.000000e+00
8.783346e-01 4.737958e-01 0.000000e+00
9.147155e-01 4.480039e-01 0.000000e+00
9.146598e-01 4.739186e-01 0.000000e+00
8.783346e-01 4.737958e-01 0.000000e+00
8.783300e-01 5.043750e-01 0.000000e+00
9.146598e-01 4.739186e-01 0.000000e+00
9.146690e-01 5.043750e-01 0.000000e+00
9.147155e-01 4.480039e-01 0.000000e+00
9.146598e-01 4.739186e-01 0.000000e+00
9.509885e-01 4.482350e-01 0.000000e+00
9.509490e-01 4.740462e-01 0.000000e+00
9.146598e-01 4.739186e-01 0.000000e+00
9.146690e-01 5.043750e-01 0.000000e+00
9.509490e-01 4.740462e-01 0.000000e+00
9.509764e-01 5.043750e-01 0.000000e+00
9.509885e-01 4.482350e-01 0.000000e+00
9.509490e-01 4.740462e-01 0.000000e+00
9.872179e-01 4.484739e-01 0.000000e+00
9.872002e-01 4.741789e-01 0.000000e+00
9.509490e-01 4.740462e-01 0.000000e+00
9.509764e-01 5.043750e-01 0.000000e+00
9.872002e-01 4.741789e-01 0.000000e+00
9.872514e-01 5.043750e-01 0.000000e+00
9.872179e-01 4.484739e-01 0.000000e+00
9.872002e-01 4.741789e-01 0.000000e+00
1.023400e+00 4.487207e-01 0.000000e+00
1.023412e+00 4.743168e-01 0.000000e+00
9.872002e-01 4.741789e-01 0.000000e+00
9.872514e-01 5.043750e-01 0.000000e+00
1.023412e+00 4.743168e-01 0.000000e+00
1.023494e+00 5.043750e-01 0.000000e+00
1.023400e+00 4.487207e-01 0.000000e+00
1.023412e+00 4.743168e-01 0.000000e+00
1.059531e+00 4.489754e-01 0.000000e+00
1.059582e+00 4.744602e-01 0.000000e+00
1.023412e+00 4.743168e-01 0.000000e+00
1.023494e+00 5.043750e-01 0.000000e+00
1.059582e+00 4.744602e-01 0.000000e+00
1.059704e+00 5.043750e-01 0.000000e+00
1.059531e+00 4.489754e-01 0.000000e+00
1.059582e+00 4.744602e-01 0.000000e+00
1.095607e+00 4.492379e-01 0.000000e+00
1.095708e+00 4.746094e-01 0.000000e+00
1.059582e+00 4.744602e-01 0.000000e+00
1.059704e+00 5.043750e-01 0.000000e+00
1.095708e+00 4.746094e-01 0.000000e+00
1.095883e+00 5.043750e-01 0.000000e+00
1.095607e+00 4.492379e-01 0.000000e+00
1.095708e+00 4.746094e-01 0.000000e+00
1.131621e+00 4.495084e-01 0.000000e+00
1.131789e+00 4.747651e-01 0.000000e+00
1.095708e+00 4.746094e-01 0.000000e+00
1.095883e+00 5.043750e-01 0.000000e+00
1.131789e+00 4.747651e-01 0.000000e+00
1.132031e+00 5.043750e-01 0.000000e+00
1.131621e+00 4.495084e-01 0.000000e+00
[...]
<PointData>
<DataArray type="Float32" Name="V1" format="ascii">
1.417518e+02
5.338699e+01
1.418052e+02
5.344042e+01
5.563670e+01
1.221337e+01
5.565933e+01
1.223599e+01
1.418265e+02
5.340829e+01
1.419589e+02
5.354071e+01
5.567849e+01
1.222716e+01
5.574028e+01
1.228894e+01
1.420106e+02
5.348321e+01
1.422290e+02
5.370156e+01
5.577684e+01
1.226929e+01
5.588265e+01
1.237510e+01
1.423087e+02
5.361710e+01
1.426138e+02
5.392226e+01
5.593598e+01
1.234394e+01
5.608563e+01
1.249360e+01
1.427213e+02
5.381029e+01
1.431143e+02
5.420329e+01
5.615612e+01
1.245114e+01
5.634984e+01
1.264486e+01
1.432496e+02
5.406336e+01
1.437316e+02
5.454534e+01
5.643780e+01
1.259111e+01
5.667602e+01
1.282933e+01
1.438949e+02
5.437701e+01
1.444672e+02
5.494927e+01
5.678173e+01
1.276422e+01
5.706505e+01
1.304754e+01
1.446590e+02
5.475211e+01
1.453230e+02
5.541615e+01
5.718882e+01
1.297095e+01
5.751799e+01
1.330013e+01
1.455436e+02
5.518965e+01
1.463011e+02
5.594722e+01
5.766014e+01
1.321189e+01
5.803607e+01
1.358782e+01
1.465510e+02
5.569084e+01
1.474040e+02
5.654391e+01
5.819698e+01
1.348772e+01
5.862071e+01
1.391145e+01
1.476837e+02
5.625704e+01
1.486346e+02
5.720786e+01
5.880078e+01
1.379925e+01
5.927352e+01
1.427199e+01
1.489447e+02
5.688982e+01
1.499958e+02
5.794089e+01
5.947322e+01
1.414740e+01
5.999633e+01
1.467051e+01
1.503372e+02
5.759094e+01
1.514913e+02
5.874506e+01
6.021616e+01
1.453323e+01
6.079118e+01
1.510825e+01
1.518646e+02
5.836237e+01
1.531249e+02
5.962262e+01
6.103169e+01
1.495791e+01
6.166034e+01
1.558657e+01
1.535310e+02
5.920633e+01
1.549007e+02
6.057610e+01
6.192215e+01
1.542280e+01
6.260637e+01
1.610701e+01
1.553405e+02
6.012526e+01
1.568235e+02
6.160826e+01
6.289013e+01
1.592938e+01
6.363206e+01
1.667130e+01
1.572978e+02
6.112188e+01
1.588981e+02
6.272215e+01
6.393849e+01
1.647935e+01
6.474051e+01
1.728138e+01
1.594079e+02
6.219918e+01
1.611298e+02
6.392110e+01
6.507038e+01
1.707460e+01
6.593517e+01
1.793939e+01
1.616762e+02
6.336048e+01
1.635245e+02
6.520877e+01
6.628929e+01
1.771726e+01
6.721982e+01
1.864779e+01
1.641084e+02
6.460941e+01
1.660881e+02
6.658916e+01
6.759904e+01
1.840972e+01
6.859864e+01
1.940932e+01
1.667105e+02
6.595000e+01
1.688271e+02
6.806666e+01
6.900388e+01
1.915470e+01
7.007627e+01
2.022709e+01
1.694888e+02
6.738668e+01
1.717482e+02
6.964604e+01
7.050845e+01
1.995528e+01
7.165782e+01
2.110465e+01
1.724499e+02
6.892436e+01
1.748581e+02
7.133254e+01
7.211790e+01
2.081497e+01
7.334900e+01
2.204607e+01
1.756004e+02
7.056845e+01
1.781638e+02
7.313188e+01
7.383793e+01
2.173783e+01
7.515616e+01
2.305606e+01
1.789469e+02
7.232498e+01
1.816722e+02
7.505034e+01
7.567484e+01
2.272855e+01
7.708639e+01
2.414009e+01
1.824957e+02
7.420068e+01
1.853898e+02
7.709478e+01
7.763567e+01
2.379261e+01
7.914769e+01
2.530463e+01
1.862526e+02
7.620306e+01
1.893223e+02
7.927277e+01
7.972829e+01
2.493648e+01
8.134912e+01
2.655731e+01
1.902225e+02
7.834060e+01
1.934745e+02
8.159262e+01
8.196153e+01
2.616788e+01
8.370100e+01
2.790735e+01
1.944086e+02
8.062292e+01
1.978492e+02
8.406350e+01
8.434540e+01
2.749610e+01
8.621519e+01
2.936589e+01
1.988119e+02
8.306099e+01
2.024464e+02
8.669555e+01
8.689129e+01
2.893245e+01
8.890548e+01
3.094664e+01
2.034298e+02
8.566750e+01
2.072624e+02
8.950006e+01
8.961227e+01
3.049086e+01
9.178801e+01
3.266660e+01
2.082551e+02
8.845719e+01
2.122875e+02
9.248957e+01
9.252346e+01
3.218867e+01
9.488190e+01
3.454711e+01
2.132735e+02
9.144736e+01
2.175042e+02
9.567807e+01
9.564250e+01
3.404776e+01
9.821005e+01
3.661531e+01
2.184612e+02
9.465853e+01
2.228838e+02
9.908112e+01
9.899009e+01
3.609605e+01
1.018001e+02
3.890610e+01
2.237814e+02
9.811511e+01
2.283823e+02
1.027160e+02
1.025906e+02
3.836967e+01
1.056860e+02
4.146499e+01
2.291797e+02
1.018463e+02
2.339350e+02
1.066016e+02
1.064728e+02
4.091613e+01
1.099089e+02
4.435220e+01
2.345783e+02
1.058868e+02
2.394496e+02
1.107580e+02
1.106698e+02
4.379918e+01
1.145195e+02
4.764892e+01
2.398689e+02
1.102775e+02
2.447979e+02
1.152065e+02
1.152179e+02
4.710660e+01
1.195788e+02
5.146746e+01
2.449027e+02
1.150673e+02
2.498053e+02
1.199699e+02
1.201511e+02
5.096419e+01
1.251566e+02
5.596964e+01
2.494759e+02
1.203179e+02
2.542412e+02
1.250833e+02
1.254830e+02
5.556394e+01
1.313255e+02
6.140648e+01
2.532993e+02
1.261318e+02
2.578132e+02
1.306458e+02
1.311516e+02
6.123370e+01
1.381472e+02
6.822922e+01
2.559043e+02
1.327718e+02
2.602039e+02
1.370715e+02
1.369099e+02
6.862892e+01
1.457003e+02
7.741929e+01
2.562599e+02
1.411980e+02
2.611771e+02
1.461152e+02
1.415478e+02
8.023564e+01
1.538746e+02
9.256247e+01
2.559005e+02
1.521988e+02
2.610905e+02
1.573887e+02
1.494378e+02
9.764524e+01
1.593091e+02
1.075165e+02
2.581010e+02
1.602608e+02
2.636007e+02
1.657605e+02
1.578685e+02
1.075215e+02
1.652693e+02
1.149223e+02
2.627838e+02
1.664634e+02
2.692540e+02
1.729336e+02
1.651563e+02
1.149221e+02
1.720559e+02
1.218217e+02
2.694748e+02
1.726179e+02
2.766364e+02
1.797795e+02
1.724687e+02
1.215142e+02
1.789402e+02
1.279858e+02
2.774757e+02
1.788369e+02
2.850724e+02
1.864335e+02
1.796893e+02
1.274643e+02
1.857595e+02
1.335345e+02
2.862979e+02
1.850797e+02
2.941043e+02
1.928862e+02
1.867359e+02
1.328652e+02
1.924198e+02
1.385491e+02
2.955711e+02
1.912667e+02
3.033954e+02
1.990910e+02
1.935443e+02
1.377834e+02
1.988494e+02
1.430885e+02
3.050027e+02
1.973137e+02
3.126843e+02
2.049954e+02
2.000584e+02
1.422687e+02
2.049873e+02
1.471975e+02
3.143567e+02
2.031443e+02
3.217631e+02
2.105507e+02
2.062294e+02
1.463581e+02
2.107813e+02
1.509099e+02
3.234414e+02
2.086926e+02
3.304639e+02
2.157151e+02
2.120153e+02
1.500788e+02
2.161874e+02
1.542508e+02
3.321008e+02
2.139035e+02
3.386510e+02
2.204537e+02
2.173805e+02
1.534498e+02
2.211692e+02
1.572385e+02
3.402082e+02
2.187319e+02
3.462148e+02
2.247385e+02
2.222955e+02
1.564848e+02
2.256968e+02
1.598861e+02
3.476612e+02
2.231408e+02
3.530671e+02
2.285468e+02
2.267361e+02
1.591929e+02
2.297462e+02
1.622031e+02
3.543778e+02
2.271007e+02
3.591378e+02
2.318607e+02
2.306825e+02
1.615804e+02
2.332981e+02
1.641960e+02
3.602927e+02
2.305879e+02
3.643714e+02
2.346665e+02
2.341191e+02
1.636513e+02
2.363372e+02
1.658694e+02
3.653549e+02
2.335837e+02
3.687247e+02
2.369536e+02
2.370335e+02
1.654084e+02
2.388515e+02
1.672264e+02
3.695247e+02
2.360736e+02
3.721652e+02
2.387140e+02
2.394161e+02
1.668534e+02
2.408321e+02
1.682694e+02
3.727726e+02
2.380464e+02
3.746686e+02
2.399424e+02
2.412597e+02
1.679873e+02
2.422721e+02
1.689998e+02
3.750770e+02
2.394938e+02
3.762185e+02
2.406354e+02
2.425591e+02
1.688106e+02
2.431670e+02
1.694185e+02
3.764237e+02
2.404100e+02
3.768048e+02
2.407912e+02
2.433111e+02
1.693236e+02
2.435138e+02
1.695263e+02
</DataArray>
<DataArray type="Float32" Name="V2" format="ascii">
4.450591e-01
4.723175e-01
4.458444e-01
4.730885e-01
4.723175e-01
5.043750e-01
4.730885e-01
5.051336e-01
4.458444e-01
4.730885e-01
4.481895e-01
4.754010e-01
4.730885e-01
5.051336e-01
4.754010e-01
5.074081e-01
4.481895e-01
4.754010e-01
4.520942e-01
4.792515e-01
4.754010e-01
5.074081e-01
4.792515e-01
5.111953e-01
4.520942e-01
4.792515e-01
4.575529e-01
4.846345e-01
4.792515e-01
5.111953e-01
4.846345e-01
5.164897e-01
4.575529e-01
4.846345e-01
4.645576e-01
4.915420e-01
4.846345e-01
5.164897e-01
4.915420e-01
5.232836e-01
4.645576e-01
4.915420e-01
4.730983e-01
4.999641e-01
4.915420e-01
5.232836e-01
4.999641e-01
5.315672e-01
4.730983e-01
4.999641e-01
4.831624e-01
5.098885e-01
4.999641e-01
5.315672e-01
5.098885e-01
5.413284e-01
4.831624e-01
5.098885e-01
4.947353e-01
5.213008e-01
5.098885e-01
5.413284e-01
5.213008e-01
5.525530e-01
4.947353e-01
5.213008e-01
5.078002e-01
5.341845e-01
5.213008e-01
5.525530e-01
5.341845e-01
5.652248e-01
5.078002e-01
5.341845e-01
5.223381e-01
5.485206e-01
5.341845e-01
5.652248e-01
5.485206e-01
5.793253e-01
5.223381e-01
5.485206e-01
5.383276e-01
5.642884e-01
5.485206e-01
5.793253e-01
5.642884e-01
5.948338e-01
5.383276e-01
5.642884e-01
5.557454e-01
5.814647e-01
5.642884e-01
5.948338e-01
5.814647e-01
6.117277e-01
5.557454e-01
5.814647e-01
5.745659e-01
6.000243e-01
5.814647e-01
6.117277e-01
6.000243e-01
6.299822e-01
5.745659e-01
6.000243e-01
5.947615e-01
6.199400e-01
6.000243e-01
6.299822e-01
6.199400e-01
6.495706e-01
5.947615e-01
6.199400e-01
6.163024e-01
6.411825e-01
6.199400e-01
6.495706e-01
6.411825e-01
6.704640e-01
6.163024e-01
6.411825e-01
6.391568e-01
6.637204e-01
6.411825e-01
6.704640e-01
6.637204e-01
6.926315e-01
6.391568e-01
6.637204e-01
6.632907e-01
6.875204e-01
6.637204e-01
6.926315e-01
6.875204e-01
7.160405e-01
6.632907e-01
6.875204e-01
6.886683e-01
7.125471e-01
6.875204e-01
7.160405e-01
7.125471e-01
7.406561e-01
6.886683e-01
7.125471e-01
7.152518e-01
7.387633e-01
7.125471e-01
7.406561e-01
7.387633e-01
7.664419e-01
7.152518e-01
7.387633e-01
7.430012e-01
7.661298e-01
7.387633e-01
7.664419e-01
7.661298e-01
7.933593e-01
7.430012e-01
7.661298e-01
7.718749e-01
7.946056e-01
7.661298e-01
7.933593e-01
7.946056e-01
8.213681e-01
7.718749e-01
7.946056e-01
8.018291e-01
8.241479e-01
7.946056e-01
8.213681e-01
8.241479e-01
8.504264e-01
8.018291e-01
8.241479e-01
8.328184e-01
8.547121e-01
8.241479e-01
8.504264e-01
8.547121e-01
8.804905e-01
8.328184e-01
8.547121e-01
8.647953e-01
8.862519e-01
8.547121e-01
8.804905e-01
8.862519e-01
9.115151e-01
8.647953e-01
8.862519e-01
8.977108e-01
9.187193e-01
8.862519e-01
9.115151e-01
9.187193e-01
9.434535e-01
8.977108e-01
9.187193e-01
9.315137e-01
9.520648e-01
9.187193e-01
9.434535e-01
9.520648e-01
9.762575e-01
9.315137e-01
9.520648e-01
9.661513e-01
9.862373e-01
9.520648e-01
9.762575e-01
9.862373e-01
1.009877e+00
9.661513e-01
9.862373e-01
1.001569e+00
1.021184e+00
9.862373e-01
1.009877e+00
1.021184e+00
1.044263e+00
1.001569e+00
1.021184e+00
1.037710e+00
1.056851e+00
1.021184e+00
1.044263e+00
1.056851e+00
1.079362e+00
1.037710e+00
1.056851e+00
1.074517e+00
1.093184e+00
1.056851e+00
1.079362e+00
1.093184e+00
1.115123e+00
1.074517e+00
1.093184e+00
1.111928e+00
1.130125e+00
1.093184e+00
1.115123e+00
1.130125e+00
1.151491e+00
1.111928e+00
1.130125e+00
1.149881e+00
1.167618e+00
1.130125e+00
1.151491e+00
1.167618e+00
1.188415e+00
1.149881e+00
1.167618e+00
1.188312e+00
1.205603e+00
1.167618e+00
1.188415e+00
1.205603e+00
1.225842e+00
1.188312e+00
1.205603e+00
1.227153e+00
1.244022e+00
1.205603e+00
1.225842e+00
1.244022e+00
1.263718e+00
1.227153e+00
1.244022e+00
1.266333e+00
1.282815e+00
1.244022e+00
1.263718e+00
1.282815e+00
1.301995e+00
1.266333e+00
1.282815e+00
1.305779e+00
1.321920e+00
1.282815e+00
1.301995e+00
1.321920e+00
1.340623e+00
1.305779e+00
1.321920e+00
1.345410e+00
1.361277e+00
1.321920e+00
1.340623e+00
1.361277e+00
1.379559e+00
1.345410e+00
1.361277e+00
1.385144e+00
1.400823e+00
1.361277e+00
1.379559e+00
1.400823e+00
1.418764e+00
1.385144e+00
1.400823e+00
1.424887e+00
1.440493e+00
1.400823e+00
1.418764e+00
1.440493e+00
1.458209e+00
1.424887e+00
1.440493e+00
1.464533e+00
1.480216e+00
1.440493e+00
1.458209e+00
1.480216e+00
1.497876e+00
1.464533e+00
1.480216e+00
1.503952e+00
1.519900e+00
1.480216e+00
1.497876e+00
1.519900e+00
1.537762e+00
1.503952e+00
1.519900e+00
1.542940e+00
1.559374e+00
1.519900e+00
1.537762e+00
1.559374e+00
1.577844e+00
1.542940e+00
1.559374e+00
1.581206e+00
1.598246e+00
1.559374e+00
1.577844e+00
1.598246e+00
1.617606e+00
1.581206e+00
1.598246e+00
1.617920e+00
1.635260e+00
1.598246e+00
1.617606e+00
1.635260e+00
1.654722e+00
1.617920e+00
1.635260e+00
1.652220e+00
1.669874e+00
1.635260e+00
1.654722e+00
1.669874e+00
1.689683e+00
1.652220e+00
1.669874e+00
1.684105e+00
1.702274e+00
1.669874e+00
1.689683e+00
1.702274e+00
1.722595e+00
1.684105e+00
1.702274e+00
1.713667e+00
1.732429e+00
1.702274e+00
1.722595e+00
1.732429e+00
1.753339e+00
1.713667e+00
1.732429e+00
1.740986e+00
1.760350e+00
1.732429e+00
1.753339e+00
1.760350e+00
1.781869e+00
1.740986e+00
1.760350e+00
1.766139e+00
1.786074e+00
1.760350e+00
1.781869e+00
1.786074e+00
1.808185e+00
1.766139e+00
1.786074e+00
1.789198e+00
1.809656e+00
1.786074e+00
1.808185e+00
1.809656e+00
1.832322e+00
1.789198e+00
1.809656e+00
1.810237e+00
1.831159e+00
1.809656e+00
1.832322e+00
1.831159e+00
1.854328e+00
1.810237e+00
1.831159e+00
1.829325e+00
1.850652e+00
1.831159e+00
1.854328e+00
1.850652e+00
1.874268e+00
1.829325e+00
1.850652e+00
1.846527e+00
1.868201e+00
1.850652e+00
1.874268e+00
1.868201e+00
1.892206e+00
1.846527e+00
1.868201e+00
1.861904e+00
1.883871e+00
1.868201e+00
1.892206e+00
1.883871e+00
1.908212e+00
1.861904e+00
1.883871e+00
1.875512e+00
1.897724e+00
1.883871e+00
1.908212e+00
1.897724e+00
1.922348e+00
1.875512e+00
1.897724e+00
1.887400e+00
1.909815e+00
1.897724e+00
1.922348e+00
1.909815e+00
1.934675e+00
1.887400e+00
1.909815e+00
1.897614e+00
1.920193e+00
1.909815e+00
1.934675e+00
1.920193e+00
1.945248e+00
1.897614e+00
1.920193e+00
1.906192e+00
1.928902e+00
1.920193e+00
1.945248e+00
1.928902e+00
1.954113e+00
1.906192e+00
1.928902e+00
1.913166e+00
1.935977e+00
1.928902e+00
1.954113e+00
1.935977e+00
1.961311e+00
1.913166e+00
1.935977e+00
1.918562e+00
1.941450e+00
1.935977e+00
1.961311e+00
1.941450e+00
1.966875e+00
1.918562e+00
1.941450e+00
1.922403e+00
1.945342e+00
1.941450e+00
1.966875e+00
1.945342e+00
1.970831e+00
1.922403e+00
1.945342e+00
1.924701e+00
1.947670e+00
1.945342e+00
1.970831e+00
1.947670e+00
1.973198e+00
1.924701e+00
1.947670e+00
1.925466e+00
1.948446e+00
1.947670e+00
1.973198e+00
1.948446e+00
1.973985e+00
</DataArray>
<DataArray type="Float32" Name="V3" format="ascii">
0.000000e+00
0.000000e+00
2.561554e-02
2.493028e-02
0.000000e+00
0.000000e+00
2.493028e-02
2.412817e-02
2.561554e-02
2.493028e-02
5.116778e-02
4.979795e-02
2.493028e-02
2.412817e-02
4.979795e-02
4.819454e-02
5.116778e-02
4.979795e-02
7.659308e-02
7.454028e-02
4.979795e-02
4.819454e-02
7.454028e-02
7.213740e-02
7.659308e-02
7.454028e-02
1.018282e-01
9.909477e-02
7.454028e-02
7.213740e-02
9.909477e-02
9.589517e-02
1.018282e-01
9.909477e-02
1.268101e-01
1.233992e-01
9.909477e-02
9.589517e-02
1.233992e-01
1.194065e-01
1.268101e-01
1.233992e-01
1.514760e-01
1.473915e-01
1.233992e-01
1.194065e-01
1.473915e-01
1.426102e-01
1.514760e-01
1.473915e-01
1.757636e-01
1.710101e-01
1.473915e-01
1.426102e-01
1.710101e-01
1.654457e-01
1.757636e-01
1.710101e-01
1.996108e-01
1.941938e-01
1.710101e-01
1.654457e-01
1.941938e-01
1.878525e-01
1.996108e-01
1.941938e-01
2.229563e-01
2.168819e-01
1.941938e-01
1.878525e-01
2.168819e-01
2.097709e-01
2.229563e-01
2.168819e-01
2.457392e-01
2.390143e-01
2.168819e-01
2.097709e-01
2.390143e-01
2.311417e-01
2.457392e-01
2.390143e-01
2.678992e-01
2.605316e-01
2.390143e-01
2.311417e-01
2.605316e-01
2.519061e-01
2.678992e-01
2.605316e-01
2.893770e-01
2.813749e-01
2.605316e-01
2.519061e-01
2.813749e-01
2.720064e-01
2.893770e-01
2.813749e-01
3.101138e-01
3.014863e-01
2.813749e-01
2.720064e-01
3.014863e-01
2.913853e-01
3.101138e-01
3.014863e-01
3.300518e-01
3.208087e-01
3.014863e-01
2.913853e-01
3.208087e-01
3.099865e-01
3.300518e-01
3.208087e-01
3.491341e-01
3.392858e-01
3.208087e-01
3.099865e-01
3.392858e-01
3.277548e-01
3.491341e-01
3.392858e-01
3.673048e-01
3.568626e-01
3.392858e-01
3.277548e-01
3.568626e-01
3.446355e-01
3.673048e-01
3.568626e-01
3.845090e-01
3.734847e-01
3.568626e-01
3.446355e-01
3.734847e-01
3.605755e-01
3.845090e-01
3.734847e-01
4.006932e-01
3.890992e-01
3.734847e-01
3.605755e-01
3.890992e-01
3.755224e-01
4.006932e-01
3.890992e-01
4.158047e-01
4.036543e-01
3.890992e-01
3.755224e-01
4.036543e-01
3.894253e-01
4.158047e-01
4.036543e-01
4.297924e-01
4.170994e-01
4.036543e-01
3.894253e-01
4.170994e-01
4.022344e-01
4.297924e-01
4.170994e-01
4.426062e-01
4.293852e-01
4.170994e-01
4.022344e-01
4.293852e-01
4.139013e-01
4.426062e-01
4.293852e-01
4.541976e-01
4.404638e-01
4.293852e-01
4.139013e-01
4.404638e-01
4.243788e-01
4.541976e-01
4.404638e-01
4.645193e-01
4.502889e-01
4.404638e-01
4.243788e-01
4.502889e-01
4.336216e-01
4.645193e-01
4.502889e-01
4.735258e-01
4.588154e-01
4.502889e-01
4.336216e-01
4.588154e-01
4.415857e-01
4.735258e-01
4.588154e-01
4.811728e-01
4.660001e-01
4.588154e-01
4.415857e-01
4.660001e-01
4.482288e-01
4.811728e-01
4.660001e-01
4.874176e-01
4.718011e-01
4.660001e-01
4.482288e-01
4.718011e-01
4.535103e-01
4.874176e-01
4.718011e-01
4.922191e-01
4.761785e-01
4.718011e-01
4.535103e-01
4.761785e-01
4.573916e-01
4.922191e-01
4.761785e-01
4.955379e-01
4.790939e-01
4.761785e-01
4.573916e-01
4.790939e-01
4.598358e-01
4.955379e-01
4.790939e-01
4.973360e-01
4.805107e-01
4.790939e-01
4.598358e-01
4.805107e-01
4.608083e-01
4.973360e-01
4.805107e-01
4.975772e-01
4.803943e-01
4.805107e-01
4.608083e-01
4.803943e-01
4.602766e-01
4.975772e-01
4.803943e-01
4.962268e-01
4.787117e-01
4.803943e-01
4.602766e-01
4.787117e-01
4.582105e-01
4.962268e-01
4.787117e-01
4.932514e-01
4.754320e-01
4.787117e-01
4.582105e-01
4.754320e-01
4.545822e-01
4.932514e-01
4.754320e-01
4.886196e-01
4.705262e-01
4.754320e-01
4.545822e-01
4.705262e-01
4.493667e-01
4.886196e-01
4.705262e-01
4.823008e-01
4.639671e-01
4.705262e-01
4.493667e-01
4.639671e-01
4.425418e-01
4.823008e-01
4.639671e-01
4.742663e-01
4.557295e-01
4.639671e-01
4.425418e-01
4.557295e-01
4.340886e-01
4.742663e-01
4.557295e-01
4.644882e-01
4.457901e-01
4.557295e-01
4.340886e-01
4.457901e-01
4.239915e-01
4.644882e-01
4.457901e-01
4.529397e-01
4.341271e-01
4.457901e-01
4.239915e-01
4.341271e-01
4.122387e-01
4.529397e-01
4.341271e-01
4.395954e-01
4.207209e-01
4.341271e-01
4.122387e-01
4.207209e-01
3.988232e-01
4.395954e-01
4.207209e-01
4.244311e-01
4.055531e-01
4.207209e-01
3.988232e-01
4.055531e-01
3.837431e-01
4.244311e-01
4.055531e-01
4.074258e-01
3.886087e-01
4.055531e-01
3.837431e-01
3.886087e-01
3.670032e-01
4.074258e-01
3.886087e-01
3.885700e-01
3.698829e-01
3.886087e-01
3.670032e-01
3.698829e-01
3.486128e-01
3.885700e-01
3.698829e-01
3.679034e-01
3.494101e-01
3.698829e-01
3.486128e-01
3.494101e-01
3.285666e-01
3.679034e-01
3.494101e-01
3.456247e-01
3.273465e-01
3.494101e-01
3.285666e-01
3.273465e-01
3.065871e-01
3.456247e-01
3.273465e-01
3.231029e-01
3.052771e-01
3.273465e-01
3.065871e-01
3.052771e-01
2.850207e-01
3.231029e-01
3.052771e-01
3.016677e-01
2.845373e-01
3.052771e-01
2.850207e-01
2.845373e-01
2.653134e-01
3.016677e-01
2.845373e-01
2.813463e-01
2.650411e-01
2.845373e-01
2.653134e-01
2.650411e-01
2.469108e-01
2.813463e-01
2.650411e-01
2.619675e-01
2.465888e-01
2.650411e-01
2.469108e-01
2.465888e-01
2.295906e-01
2.619675e-01
2.465888e-01
2.433718e-01
2.289893e-01
2.465888e-01
2.295906e-01
2.289893e-01
2.131522e-01
2.433718e-01
2.289893e-01
2.254189e-01
2.120755e-01
2.289893e-01
2.131522e-01
2.120755e-01
1.974167e-01
2.254189e-01
2.120755e-01
2.079888e-01
1.957053e-01
2.120755e-01
1.974167e-01
1.957053e-01
1.822298e-01
2.079888e-01
1.957053e-01
1.909801e-01
1.797603e-01
1.957053e-01
1.822298e-01
1.797603e-01
1.674616e-01
1.909801e-01
1.797603e-01
1.743081e-01
1.641432e-01
1.797603e-01
1.674616e-01
1.641432e-01
1.530054e-01
1.743081e-01
1.641432e-01
1.579028e-01
1.487753e-01
1.641432e-01
1.530054e-01
1.487753e-01
1.387756e-01
1.579028e-01
1.487753e-01
1.417068e-01
1.335934e-01
1.487753e-01
1.387756e-01
1.335934e-01
1.247047e-01
1.417068e-01
1.335934e-01
1.256731e-01
1.185479e-01
1.335934e-01
1.247047e-01
1.185479e-01
1.107408e-01
1.256731e-01
1.185479e-01
1.097641e-01
1.036002e-01
1.185479e-01
1.107408e-01
1.036002e-01
9.684519e-02
1.097641e-01
1.036002e-01
9.394940e-02
8.872085e-02
1.036002e-01
9.684519e-02
8.872085e-02
8.298959e-02
9.394940e-02
8.872085e-02
7.820513e-02
7.388784e-02
8.872085e-02
8.298959e-02
7.388784e-02
6.915444e-02
7.820513e-02
7.388784e-02
6.251233e-02
5.908520e-02
7.388784e-02
6.915444e-02
5.908520e-02
5.532700e-02
6.251233e-02
5.908520e-02
4.685613e-02
4.430163e-02
5.908520e-02
5.532700e-02
4.430163e-02
4.149989e-02
4.685613e-02
4.430163e-02
3.122477e-02
2.952941e-02
4.430163e-02
4.149989e-02
2.952941e-02
2.766972e-02
3.122477e-02
2.952941e-02
1.560873e-02
1.476336e-02
2.952941e-02
2.766972e-02
1.476336e-02
1.383598e-02
1.560873e-02
1.476336e-02
0.000000e+00
0.000000e+00
1.476336e-02
1.383598e-02
0.000000e+00
0.000000e+00
</DataArray>
<DataArray type="Float32" Name="V4" format="ascii">
8.500000e-01
9.250000e-01
8.500000e-01
9.250000e-01
9.250000e-01
1.000000e+00