<?xml version="1.0"?>
<VTKFile type="UnstructuredGrid" version="0.1" byte_order="LittleEndian" compressor="vtkZLibDataCompressor">
<UnstructuredGrid>
<Piece NumberOfPoints="504" NumberOfCells="126">
<Points>
<DataArray type="Float32" NumberOfComponents="3" format="ascii">
0.000000e+00 4.044301e-01 0.000000e+00
0.000000e+00 4.258799e-01 0.000000e+00
4.139948e-02 4.044388e-01 0.000000e+00
4.139791e-02 4.258811e-01 0.000000e+00
0.000000e+00 4.258799e-01 0.000000e+00
0.000000e+00 4.510938e-01 0.000000e+00
4.139791e-02 4.258811e-01 0.000000e+00
4.139808e-02 4.510938e-01 0.000000e+00
4.139948e-02 4.044388e-01 0.000000e+00
4.139791e-02 4.258811e-01 0.000000e+00
8.279793e-02 4.044506e-01 0.000000e+00
8.279473e-02 4.258874e-01 0.000000e+00
4.139791e-02 4.258811e-01 0.000000e+00
4.139808e-02 4.510938e-01 0.000000e+00
8.279473e-02 4.258874e-01 0.000000e+00
8.279495e-02 4.510938e-01 0.000000e+00
8.279793e-02 4.044506e-01 0.000000e+00
8.279473e-02 4.258874e-01 0.000000e+00
1.241938e-01 4.044700e-01 0.000000e+00
1.241890e-01 4.258979e-01 0.000000e+00
8.279473e-02 4.258874e-01 0.000000e+00
8.279495e-02 4.510938e-01 0.000000e+00
1.241890e-01 4.258979e-01 0.000000e+00
1.241893e-01 4.510938e-01 0.000000e+00
1.241938e-01 4.044700e-01 0.000000e+00
1.241890e-01 4.258979e-01 0.000000e+00
1.655860e-01 4.044972e-01 0.000000e+00
1.655796e-01 4.259127e-01 0.000000e+00
1.241890e-01 4.258979e-01 0.000000e+00
1.241893e-01 4.510938e-01 0.000000e+00
1.655796e-01 4.259127e-01 0.000000e+00
1.655800e-01 4.510938e-01 0.000000e+00
1.655860e-01 4.044972e-01 0.000000e+00
1.655796e-01 4.259127e-01 0.000000e+00
2.069730e-01 4.045322e-01 0.000000e+00
2.069650e-01 4.259316e-01 0.000000e+00
1.655796e-01 4.259127e-01 0.000000e+00
1.655800e-01 4.510938e-01 0.000000e+00
2.069650e-01 4.259316e-01 0.000000e+00
2.069656e-01 4.510938e-01 0.000000e+00
2.069730e-01 4.045322e-01 0.000000e+00
2.069650e-01 4.259316e-01 0.000000e+00
2.483537e-01 4.045749e-01 0.000000e+00
2.483442e-01 4.259547e-01 0.000000e+00
2.069650e-01 4.259316e-01 0.000000e+00
2.069656e-01 4.510938e-01 0.000000e+00
2.483442e-01 4.259547e-01 0.000000e+00
2.483450e-01 4.510938e-01 0.000000e+00
2.483537e-01 4.045749e-01 0.000000e+00
2.483442e-01 4.259547e-01 0.000000e+00
2.897268e-01 4.046253e-01 0.000000e+00
2.897158e-01 4.259820e-01 0.000000e+00
2.483442e-01 4.259547e-01 0.000000e+00
2.483450e-01 4.510938e-01 0.000000e+00
2.897158e-01 4.259820e-01 0.000000e+00
2.897167e-01 4.510938e-01 0.000000e+00
2.897268e-01 4.046253e-01 0.000000e+00
2.897158e-01 4.259820e-01 0.000000e+00
3.310909e-01 4.046834e-01 0.000000e+00
3.310785e-01 4.260134e-01 0.000000e+00
2.897158e-01 4.259820e-01 0.000000e+00
2.897167e-01 4.510938e-01 0.000000e+00
3.310785e-01 4.260134e-01 0.000000e+00
3.310796e-01 4.510938e-01 0.000000e+00
3.310909e-01 4.046834e-01 0.000000e+00
3.310785e-01 4.260134e-01 0.000000e+00
3.724447e-01 4.047491e-01 0.000000e+00
3.724309e-01 4.260490e-01 0.000000e+00
3.310785e-01 4.260134e-01 0.000000e+00
3.310796e-01 4.510938e-01 0.000000e+00
3.724309e-01 4.260490e-01 0.000000e+00
3.724324e-01 4.510938e-01 0.000000e+00
3.724447e-01 4.047491e-01 0.000000e+00
3.724309e-01 4.260490e-01 0.000000e+00
4.137868e-01 4.048223e-01 0.000000e+00
4.137717e-01 4.260886e-01 0.000000e+00
3.724309e-01 4.260490e-01 0.000000e+00
3.724324e-01 4.510938e-01 0.000000e+00
4.137717e-01 4.260886e-01 0.000000e+00
4.137736e-01 4.510938e-01 0.000000e+00
4.137868e-01 4.048223e-01 0.000000e+00
4.137717e-01 4.260886e-01 0.000000e+00
4.551159e-01 4.049031e-01 0.000000e+00
4.550996e-01 4.261323e-01 0.000000e+00
4.137717e-01 4.260886e-01 0.000000e+00
4.137736e-01 4.510938e-01 0.000000e+00
4.550996e-01 4.261323e-01 0.000000e+00
4.551019e-01 4.510938e-01 0.000000e+00
4.551159e-01 4.049031e-01 0.000000e+00
4.550996e-01 4.261323e-01 0.000000e+00
4.964306e-01 4.049914e-01 0.000000e+00
4.964132e-01 4.261801e-01 0.000000e+00
4.550996e-01 4.261323e-01 0.000000e+00
4.551019e-01 4.510938e-01 0.000000e+00
4.964132e-01 4.261801e-01 0.000000e+00
4.964159e-01 4.510938e-01 0.000000e+00
4.964306e-01 4.049914e-01 0.000000e+00
4.964132e-01 4.261801e-01 0.000000e+00
5.377293e-01 4.050871e-01 0.000000e+00
5.377109e-01 4.262319e-01 0.000000e+00
4.964132e-01 4.261801e-01 0.000000e+00
4.964159e-01 4.510938e-01 0.000000e+00
5.377109e-01 4.262319e-01 0.000000e+00
5.377142e-01 4.510938e-01 0.000000e+00
5.377293e-01 4.050871e-01 0.000000e+00
5.377109e-01 4.262319e-01 0.000000e+00
5.790107e-01 4.051901e-01 0.000000e+00
5.789913e-01 4.262876e-01 0.000000e+00
5.377109e-01 4.262319e-01 0.000000e+00
5.377142e-01 4.510938e-01 0.000000e+00
5.789913e-01 4.262876e-01 0.000000e+00
5.789954e-01 4.510938e-01 0.000000e+00
5.790107e-01 4.051901e-01 0.000000e+00
5.789913e-01 4.262876e-01 0.000000e+00
6.202731e-01 4.053004e-01 0.000000e+00
6.202531e-01 4.263473e-01 0.000000e+00
5.789913e-01 4.262876e-01 0.000000e+00
5.789954e-01 4.510938e-01 0.000000e+00
6.202531e-01 4.263473e-01 0.000000e+00
6.202580e-01 4.510938e-01 0.000000e+00
6.202731e-01 4.053004e-01 0.000000e+00
6.202531e-01 4.263473e-01 0.000000e+00
6.615151e-01 4.054180e-01 0.000000e+00
6.614945e-01 4.264110e-01 0.000000e+00
6.202531e-01 4.263473e-01 0.000000e+00
6.202580e-01 4.510938e-01 0.000000e+00
6.614945e-01 4.264110e-01 0.000000e+00
6.615004e-01 4.510938e-01 0.000000e+00
6.615151e-01 4.054180e-01 0.000000e+00
6.614945e-01 4.264110e-01 0.000000e+00
7.027349e-01 4.055426e-01 0.000000e+00
7.027140e-01 4.264785e-01 0.000000e+00
6.614945e-01 4.264110e-01 0.000000e+00
6.615004e-01 4.510938e-01 0.000000e+00
7.027140e-01 4.264785e-01 0.000000e+00
7.027211e-01 4.510938e-01 0.000000e+00
7.027349e-01 4.055426e-01 0.000000e+00
7.027140e-01 4.264785e-01 0.000000e+00
7.439311e-01 4.056743e-01 0.000000e+00
7.439100e-01 4.265498e-01 0.000000e+00
7.027140e-01 4.264785e-01 0.000000e+00
7.027211e-01 4.510938e-01 0.000000e+00
7.439100e-01 4.265498e-01 0.000000e+00
7.439185e-01 4.510938e-01 0.000000e+00
7.439311e-01 4.056743e-01 0.000000e+00
7.439100e-01 4.265498e-01 0.000000e+00
7.851017e-01 4.058130e-01 0.000000e+00
7.850808e-01 4.266249e-01 0.000000e+00
7.439100e-01 4.265498e-01 0.000000e+00
7.439185e-01 4.510938e-01 0.000000e+00
7.850808e-01 4.266249e-01 0.000000e+00
7.850911e-01 4.510938e-01 0.000000e+00
7.851017e-01 4.058130e-01 0.000000e+00
7.850808e-01 4.266249e-01 0.000000e+00
8.262450e-01 4.059585e-01 0.000000e+00
8.262247e-01 4.267037e-01 0.000000e+00
7.850808e-01 4.266249e-01 0.000000e+00
7.850911e-01 4.510938e-01 0.000000e+00
8.262247e-01 4.267037e-01 0.000000e+00
8.262370e-01 4.510938e-01 0.000000e+00
8.262450e-01 4.059585e-01 0.000000e+00
8.262247e-01 4.267037e-01 0.000000e+00
8.673593e-01 4.061108e-01 0.000000e+00
8.673399e-01 4.267863e-01 0.000000e+00
8.262247e-01 4.267037e-01 0.000000e+00
8.262370e-01 4.510938e-01 0.000000e+00
8.673399e-01 4.267863e-01 0.000000e+00
8.673548e-01 4.510938e-01 0.000000e+00
8.673593e-01 4.061108e-01 0.000000e+00
8.673399e-01 4.267863e-01 0.000000e+00
9.084424e-01 4.062698e-01 0.000000e+00
9.084247e-01 4.268725e-01 0.000000e+00
8.673399e-01 4.267863e-01 0.000000e+00
8.673548e-01 4.510938e-01 0.000000e+00
9.084247e-01 4.268725e-01 0.000000e+00
9.084425e-01 4.510938e-01 0.000000e+00
9.084424e-01 4.062698e-01 0.000000e+00
9.084247e-01 4.268725e-01 0.000000e+00
9.494925e-01 4.064354e-01 0.000000e+00
9.494770e-01 4.269623e-01 0.000000e+00
9.084247e-01 4.268725e-01 0.000000e+00
9.084425e-01 4.510938e-01 0.000000e+00
9.494770e-01 4.269623e-01 0.000000e+00
9.494986e-01 4.510938e-01 0.000000e+00
9.494925e-01 4.064354e-01 0.000000e+00
9.494770e-01 4.269623e-01 0.000000e+00
9.905073e-01 4.066074e-01 0.000000e+00
9.904949e-01 4.270557e-01 0.000000e+00
9.494770e-01 4.269623e-01 0.000000e+00
9.494986e-01 4.510938e-01 0.000000e+00
9.904949e-01 4.270557e-01 0.000000e+00
9.905211e-01 4.510938e-01 0.000000e+00
9.905073e-01 4.066074e-01 0.000000e+00
9.904949e-01 4.270557e-01 0.000000e+00
1.031485e+00 4.067858e-01 0.000000e+00
1.031477e+00 4.271527e-01 0.000000e+00
9.904949e-01 4.270557e-01 0.000000e+00
9.905211e-01 4.510938e-01 0.000000e+00
1.031477e+00 4.271527e-01 0.000000e+00
1.031508e+00 4.510938e-01 0.000000e+00
1.031485e+00 4.067858e-01 0.000000e+00
1.031477e+00 4.271527e-01 0.000000e+00
1.072422e+00 4.069705e-01 0.000000e+00
1.072420e+00 4.272532e-01 0.000000e+00
1.031477e+00 4.271527e-01 0.000000e+00
1.031508e+00 4.510938e-01 0.000000e+00
1.072420e+00 4.272532e-01 0.000000e+00
1.072459e+00 4.510938e-01 0.000000e+00
1.072422e+00 4.069705e-01 0.000000e+00
1.072420e+00 4.272532e-01 0.000000e+00
1.113318e+00 4.071614e-01 0.000000e+00
1.113322e+00 4.273572e-01 0.000000e+00
1.072420e+00 4.272532e-01 0.000000e+00
1.072459e+00 4.510938e-01 0.000000e+00
1.113322e+00 4.273572e-01 0.000000e+00
1.113370e+00 4.510938e-01 0.000000e+00
1.113318e+00 4.071614e-01 0.000000e+00
1.113322e+00 4.273572e-01 0.000000e+00
1.154168e+00 4.073583e-01 0.000000e+00
1.154182e+00 4.274647e-01 0.000000e+00
1.113322e+00 4.273572e-01 0.000000e+00
1.113370e+00 4.510938e-01 0.000000e+00
1.154182e+00 4.274647e-01 0.000000e+00
1.154241e+00 4.510938e-01 0.000000e+00
1.154168e+00 4.073583e-01 0.000000e+00
1.154182e+00 4.274647e-01 0.000000e+00
1.194970e+00 4.075612e-01 0.000000e+00
1.194997e+00 4.275757e-01 0.000000e+00
1.154182e+00 4.274647e-01 0.000000e+00
1.154241e+00 4.510938e-01 0.000000e+00
1.194997e+00 4.275757e-01 0.000000e+00
1.195070e+00 4.510938e-01 0.000000e+00
1.194970e+00 4.075612e-01 0.000000e+00
1.194997e+00 4.275757e-01 0.000000e+00
1.235722e+00 4.077700e-01 0.000000e+00
1.235765e+00 4.276902e-01 0.000000e+00
1.194997e+00 4.275757e-01 0.000000e+00
1.195070e+00 4.510938e-01 0.000000e+00
1.235765e+00 4.276902e-01 0.000000e+00
1.235856e+00 4.510938e-01 0.000000e+00
1.235722e+00 4.077700e-01 0.000000e+00
1.235765e+00 4.276902e-01 0.000000e+00
1.276419e+00 4.079846e-01 0.000000e+00
1.276484e+00 4.278083e-01 0.000000e+00
1.235765e+00 4.276902e-01 0.000000e+00
1.235856e+00 4.510938e-01 0.000000e+00
1.276484e+00 4.278083e-01 0.000000e+00
1.276597e+00 4.510938e-01 0.000000e+00
1.276419e+00 4.079846e-01 0.000000e+00
[...]
<PointData>
<DataArray type="Float32" Name="V1" format="ascii">
3.632366e+02
1.506093e+02
3.633737e+02
1.507464e+02
1.556467e+02
4.724265e+01
1.557018e+02
4.729776e+01
3.634152e+02
1.506628e+02
3.637472e+02
1.509949e+02
1.557488e+02
4.727793e+01
1.559048e+02
4.743397e+01
3.638588e+02
1.508533e+02
3.644000e+02
1.513946e+02
1.559933e+02
4.738822e+01
1.562614e+02
4.765627e+01
3.645778e+02
1.511916e+02
3.653299e+02
1.519438e+02
1.563895e+02
4.758283e+01
1.567691e+02
4.796241e+01
3.655733e+02
1.516782e+02
3.665393e+02
1.526441e+02
1.569379e+02
4.786176e+01
1.574295e+02
4.835340e+01
3.668481e+02
1.523144e+02
3.680309e+02
1.534972e+02
1.576399e+02
4.822562e+01
1.582446e+02
4.883035e+01
3.684054e+02
1.531020e+02
3.698085e+02
1.545052e+02
1.584971e+02
4.867534e+01
1.592164e+02
4.939462e+01
3.702492e+02
1.540433e+02
3.718765e+02
1.556706e+02
1.595119e+02
4.921210e+01
1.603476e+02
5.004777e+01
3.723844e+02
1.551407e+02
3.742402e+02
1.569965e+02
1.606869e+02
4.983735e+01
1.616412e+02
5.079161e+01
3.748164e+02
1.563971e+02
3.769057e+02
1.584865e+02
1.620252e+02
5.055281e+01
1.631006e+02
5.162822e+01
3.775514e+02
1.578160e+02
3.798799e+02
1.601445e+02
1.635303e+02
5.136046e+01
1.647298e+02
5.255995e+01
3.805967e+02
1.594012e+02
3.831704e+02
1.619750e+02
1.652063e+02
5.226257e+01
1.665332e+02
5.358946e+01
3.839601e+02
1.611570e+02
3.867861e+02
1.639830e+02
1.670578e+02
5.326170e+01
1.685159e+02
5.471972e+01
3.876505e+02
1.630883e+02
3.907365e+02
1.661742e+02
1.690899e+02
5.436073e+01
1.706832e+02
5.595402e+01
3.916778e+02
1.652004e+02
3.950322e+02
1.685547e+02
1.713082e+02
5.556286e+01
1.730414e+02
5.729603e+01
3.960528e+02
1.674993e+02
3.996848e+02
1.711313e+02
1.737191e+02
5.687167e+01
1.755972e+02
5.874981e+01
4.007873e+02
1.699915e+02
4.047072e+02
1.739114e+02
1.763293e+02
5.829110e+01
1.783580e+02
6.031984e+01
4.058943e+02
1.726843e+02
4.101132e+02
1.769032e+02
1.791465e+02
5.982553e+01
1.813320e+02
6.201106e+01
4.113879e+02
1.755856e+02
4.159179e+02
1.801156e+02
1.821790e+02
6.147980e+01
1.845281e+02
6.382892e+01
4.172834e+02
1.787042e+02
4.221376e+02
1.835584e+02
1.854360e+02
6.325923e+01
1.879562e+02
6.577943e+01
4.235974e+02
1.820494e+02
4.287901e+02
1.872422e+02
1.889273e+02
6.516973e+01
1.916268e+02
6.786925e+01
4.303477e+02
1.856319e+02
4.358945e+02
1.911787e+02
1.926640e+02
6.721781e+01
1.955519e+02
7.010573e+01
4.375537e+02
1.894628e+02
4.434712e+02
1.953804e+02
1.966579e+02
6.941068e+01
1.997443e+02
7.249700e+01
4.452359e+02
1.935548e+02
4.515422e+02
1.998611e+02
2.009222e+02
7.175637e+01
2.042180e+02
7.505214e+01
4.534164e+02
1.979214e+02
4.601309e+02
2.046359e+02
2.054710e+02
7.426380e+01
2.089885e+02
7.778128e+01
4.621187e+02
2.025776e+02
4.692621e+02
2.097210e+02
2.103200e+02
7.694297e+01
2.140728e+02
8.069576e+01
4.713675e+02
2.075397e+02
4.789622e+02
2.151344e+02
2.154864e+02
7.980510e+01
2.194897e+02
8.380841e+01
4.811887e+02
2.128258e+02
4.892585e+02
2.208956e+02
2.209890e+02
8.286289e+01
2.252599e+02
8.713378e+01
4.916094e+02
2.184557e+02
5.001794e+02
2.270257e+02
2.268486e+02
8.613079e+01
2.314063e+02
9.068853e+01
5.026571e+02
2.244513e+02
5.117538e+02
2.335480e+02
2.330880e+02
8.962538e+01
2.379545e+02
9.449186e+01
5.143596e+02
2.308368e+02
5.240108e+02
2.404881e+02
2.397327e+02
9.336585e+01
2.449330e+02
9.856615e+01
5.267440e+02
2.376394e+02
5.369782e+02
2.478737e+02
2.468108e+02
9.737460e+01
2.523739e+02
1.029378e+02
5.398358e+02
2.448893e+02
5.506820e+02
2.557356e+02
2.543539e+02
1.016781e+02
2.603137e+02
1.076380e+02
5.536571e+02
2.526205e+02
5.651439e+02
2.641074e+02
2.623974e+02
1.063080e+02
2.687940e+02
1.127046e+02
5.682247e+02
2.608717e+02
5.803792e+02
2.730262e+02
2.709813e+02
1.113024e+02
2.778624e+02
1.181835e+02
5.835469e+02
2.696869e+02
5.963930e+02
2.825329e+02
2.801510e+02
1.167080e+02
2.875746e+02
1.241316e+02
5.996193e+02
2.791168e+02
6.131751e+02
2.926726e+02
2.899587e+02
1.225829e+02
2.979957e+02
1.306198e+02
6.164191e+02
2.892203e+02
6.306936e+02
3.034947e+02
3.004642e+02
1.289997e+02
3.092030e+02
1.377385e+02
6.338976e+02
3.000658e+02
6.488849e+02
3.150532e+02
3.117367e+02
1.360514e+02
3.212889e+02
1.456036e+02
6.519696e+02
3.117337e+02
6.676421e+02
3.274061e+02
3.238564e+02
1.438586e+02
3.343650e+02
1.543672e+02
6.705007e+02
3.243173e+02
6.867979e+02
3.406146e+02
3.369146e+02
1.525806e+02
3.485660e+02
1.642320e+02
6.892890e+02
3.379247e+02
7.061048e+02
3.547406e+02
3.510123e+02
1.624334e+02
3.640534e+02
1.754745e+02
7.080418e+02
3.526793e+02
7.252094e+02
3.698468e+02
3.662477e+02
1.737193e+02
3.810132e+02
1.884847e+02
7.263359e+02
3.687293e+02
7.436198e+02
3.860132e+02
3.826761e+02
1.868860e+02
3.996314e+02
2.038414e+02
7.435173e+02
3.863191e+02
7.606528e+02
4.034546e+02
4.001767e+02
2.026807e+02
4.200000e+02
2.225040e+02
7.582849e+02
4.061942e+02
7.753829e+02
4.232922e+02
4.180980e+02
2.226878e+02
4.420183e+02
2.466081e+02
7.670550e+02
4.315395e+02
7.871742e+02
4.516587e+02
4.322237e+02
2.542859e+02
4.662016e+02
2.882639e+02
7.781795e+02
4.618818e+02
7.975632e+02
4.812654e+02
4.598502e+02
2.940104e+02
4.824835e+02
3.166438e+02
7.953487e+02
4.833546e+02
8.171068e+02
5.051127e+02
4.823444e+02
3.166411e+02
5.035116e+02
3.378083e+02
8.185429e+02
5.034823e+02
8.423793e+02
5.273187e+02
5.052074e+02
3.366961e+02
5.253771e+02
3.568659e+02
8.456660e+02
5.238005e+02
8.706825e+02
5.488170e+02
5.281612e+02
3.550073e+02
5.472723e+02
3.741184e+02
8.750327e+02
5.441687e+02
9.004174e+02
5.695534e+02
5.506614e+02
3.718339e+02
5.686375e+02
3.898100e+02
9.053630e+02
5.642573e+02
9.304181e+02
5.893124e+02
5.723628e+02
3.872929e+02
5.891219e+02
4.040520e+02
9.356291e+02
5.837148e+02
9.597612e+02
6.078469e+02
5.929768e+02
4.014455e+02
6.084341e+02
4.169028e+02
9.649881e+02
6.022174e+02
9.876978e+02
6.249272e+02
6.122551e+02
4.143196e+02
6.263264e+02
4.283909e+02
9.927438e+02
6.194819e+02
1.013616e+03
6.403539e+02
6.299825e+02
4.259211e+02
6.425884e+02
4.385270e+02
1.018323e+03
6.352674e+02
1.037016e+03
6.539600e+02
6.459750e+02
4.362422e+02
6.570438e+02
4.473110e+02
1.041258e+03
6.493729e+02
1.057494e+03
6.656094e+02
6.600778e+02
4.452673e+02
6.695471e+02
4.547366e+02
1.061169e+03
6.616337e+02
1.074729e+03
6.751937e+02
6.721634e+02
4.529772e+02
6.799809e+02
4.607947e+02
1.077756e+03
6.719166e+02
1.088469e+03
6.826294e+02
6.821290e+02
4.593524e+02
6.882522e+02
4.654756e+02
1.090790e+03
6.801172e+02
1.098529e+03
6.878560e+02
6.898943e+02
4.643746e+02
6.942908e+02
4.687711e+02
1.100100e+03
6.861558e+02
1.104777e+03
6.908332e+02
6.953999e+02
4.680283e+02
6.980469e+02
4.706752e+02
1.105569e+03
6.899756e+02
1.107134e+03
6.915404e+02
6.986057e+02
4.703012e+02
6.994895e+02
4.711850e+02
</DataArray>
<DataArray type="Float32" Name="V2" format="ascii">
4.044301e-01
4.258799e-01
4.053452e-01
4.267808e-01
4.258799e-01
4.510938e-01
4.267808e-01
4.519857e-01
4.053452e-01
4.267808e-01
4.080750e-01
4.294850e-01
4.267808e-01
4.519857e-01
4.294850e-01
4.546600e-01
4.080750e-01
4.294850e-01
4.126201e-01
4.339877e-01
4.294850e-01
4.546600e-01
4.339877e-01
4.591131e-01
4.126201e-01
4.339877e-01
4.189742e-01
4.402826e-01
4.339877e-01
4.591131e-01
4.402826e-01
4.653386e-01
4.189742e-01
4.402826e-01
4.271285e-01
4.483608e-01
4.402826e-01
4.653386e-01
4.483608e-01
4.733278e-01
4.271285e-01
4.483608e-01
4.370714e-01
4.582109e-01
4.483608e-01
4.733278e-01
4.582109e-01
4.830693e-01
4.370714e-01
4.582109e-01
4.487887e-01
4.698190e-01
4.582109e-01
4.830693e-01
4.698190e-01
4.945494e-01
4.487887e-01
4.698190e-01
4.622639e-01
4.831685e-01
4.698190e-01
4.945494e-01
4.831685e-01
5.077519e-01
4.622639e-01
4.831685e-01
4.774779e-01
4.982407e-01
4.831685e-01
5.077519e-01
4.982407e-01
5.226579e-01
4.774779e-01
4.982407e-01
4.944091e-01
5.150140e-01
4.982407e-01
5.226579e-01
5.150140e-01
5.392464e-01
4.944091e-01
5.150140e-01
5.130334e-01
5.334647e-01
5.150140e-01
5.392464e-01
5.334647e-01
5.574938e-01
5.130334e-01
5.334647e-01
5.333243e-01
5.535664e-01
5.334647e-01
5.574938e-01
5.535664e-01
5.773741e-01
5.333243e-01
5.535664e-01
5.552527e-01
5.752906e-01
5.535664e-01
5.773741e-01
5.752906e-01
5.988589e-01
5.552527e-01
5.752906e-01
5.787875e-01
5.986060e-01
5.752906e-01
5.988589e-01
5.986060e-01
6.219176e-01
5.787875e-01
5.986060e-01
6.038948e-01
6.234794e-01
5.986060e-01
6.219176e-01
6.234794e-01
6.465170e-01
6.038948e-01
6.234794e-01
6.305385e-01
6.498750e-01
6.234794e-01
6.465170e-01
6.498750e-01
6.726220e-01
6.305385e-01
6.498750e-01
6.586803e-01
6.777548e-01
6.498750e-01
6.726220e-01
6.777548e-01
7.001948e-01
6.586803e-01
6.777548e-01
6.882795e-01
7.070785e-01
6.777548e-01
7.001948e-01
7.070785e-01
7.291956e-01
6.882795e-01
7.070785e-01
7.192933e-01
7.378037e-01
7.070785e-01
7.291956e-01
7.378037e-01
7.595826e-01
7.192933e-01
7.378037e-01
7.516765e-01
7.698857e-01
7.378037e-01
7.595826e-01
7.698857e-01
7.913115e-01
7.516765e-01
7.698857e-01
7.853819e-01
8.032777e-01
7.698857e-01
7.913115e-01
8.032777e-01
8.243361e-01
7.853819e-01
8.032777e-01
8.203602e-01
8.379310e-01
8.032777e-01
8.243361e-01
8.379310e-01
8.586081e-01
8.203602e-01
8.379310e-01
8.565598e-01
8.737946e-01
8.379310e-01
8.586081e-01
8.737946e-01
8.940774e-01
8.565598e-01
8.737946e-01
8.939274e-01
9.108157e-01
8.737946e-01
8.940774e-01
9.108157e-01
9.306916e-01
8.939274e-01
9.108157e-01
9.324075e-01
9.489394e-01
9.108157e-01
9.306916e-01
9.489394e-01
9.683967e-01
9.324075e-01
9.489394e-01
9.719427e-01
9.881092e-01
9.489394e-01
9.683967e-01
9.881092e-01
1.007137e+00
9.719427e-01
9.881092e-01
1.012474e+00
1.028267e+00
9.881092e-01
1.007137e+00
1.028267e+00
1.046854e+00
1.012474e+00
1.028267e+00
1.053939e+00
1.069351e+00
1.028267e+00
1.046854e+00
1.069351e+00
1.087490e+00
1.053939e+00
1.069351e+00
1.096277e+00
1.111301e+00
1.069351e+00
1.087490e+00
1.111301e+00
1.128983e+00
1.096277e+00
1.111301e+00
1.139421e+00
1.154053e+00
1.111301e+00
1.128983e+00
1.154053e+00
1.171271e+00
1.139421e+00
1.154053e+00
1.183305e+00
1.197542e+00
1.154053e+00
1.171271e+00
1.197542e+00
1.214290e+00
1.183305e+00
1.197542e+00
1.227861e+00
1.241700e+00
1.197542e+00
1.214290e+00
1.241700e+00
1.257976e+00
1.227861e+00
1.241700e+00
1.273019e+00
1.286462e+00
1.241700e+00
1.257976e+00
1.286462e+00
1.302263e+00
1.273019e+00
1.286462e+00
1.318707e+00
1.331756e+00
1.286462e+00
1.302263e+00
1.331756e+00
1.347084e+00
1.318707e+00
1.331756e+00
1.364851e+00
1.377514e+00
1.331756e+00
1.347084e+00
1.377514e+00
1.392373e+00
1.364851e+00
1.377514e+00
1.411374e+00
1.423663e+00
1.377514e+00
1.392373e+00
1.423663e+00
1.438062e+00
1.411374e+00
1.423663e+00
1.458200e+00
1.470131e+00
1.423663e+00
1.438062e+00
1.470131e+00
1.484085e+00
1.458200e+00
1.470131e+00
1.505246e+00
1.516845e+00
1.470131e+00
1.484085e+00
1.516845e+00
1.530376e+00
1.505246e+00
1.516845e+00
1.552430e+00
1.563731e+00
1.516845e+00
1.530376e+00
1.563731e+00
1.576870e+00
1.552430e+00
1.563731e+00
1.599665e+00
1.610716e+00
1.563731e+00
1.576870e+00
1.610716e+00
1.623505e+00
1.599665e+00
1.610716e+00
1.646858e+00
1.657723e+00
1.610716e+00
1.623505e+00
1.657723e+00
1.670225e+00
1.646858e+00
1.657723e+00
1.693915e+00
1.704678e+00
1.657723e+00
1.670225e+00
1.704678e+00
1.716977e+00
1.693915e+00
1.704678e+00
1.740730e+00
1.751503e+00
1.704678e+00
1.716977e+00
1.751503e+00
1.763719e+00
1.740730e+00
1.751503e+00
1.787189e+00
1.798116e+00
1.751503e+00
1.763719e+00
1.798116e+00
1.810427e+00
1.787189e+00
1.798116e+00
1.833151e+00
1.844424e+00
1.798116e+00
1.810427e+00
1.844424e+00
1.857099e+00
1.833151e+00
1.844424e+00
1.878418e+00
1.890272e+00
1.844424e+00
1.857099e+00
1.890272e+00
1.903738e+00
1.878418e+00
1.890272e+00
1.922652e+00
1.935091e+00
1.890272e+00
1.903738e+00
1.935091e+00
1.949291e+00
1.922652e+00
1.935091e+00
1.964523e+00
1.977145e+00
1.935091e+00
1.949291e+00
1.977145e+00
1.991396e+00
1.964523e+00
1.977145e+00
2.003330e+00
2.016325e+00
1.977145e+00
1.991396e+00
2.016325e+00
2.031012e+00
2.003330e+00
2.016325e+00
2.039070e+00
2.052590e+00
2.016325e+00
2.031012e+00
2.052590e+00
2.067846e+00
2.039070e+00
2.052590e+00
2.071789e+00
2.085884e+00
2.052590e+00
2.067846e+00
2.085884e+00
2.101761e+00
2.071789e+00
2.085884e+00
2.101539e+00
2.116203e+00
2.085884e+00
2.101761e+00
2.116203e+00
2.132694e+00
2.101539e+00
2.116203e+00
2.128383e+00
2.143577e+00
2.116203e+00
2.132694e+00
2.143577e+00
2.160648e+00
2.128383e+00
2.143577e+00
2.152390e+00
2.168062e+00
2.143577e+00
2.160648e+00
2.168062e+00
2.185658e+00
2.152390e+00
2.168062e+00
2.173635e+00
2.189724e+00
2.168062e+00
2.185658e+00
2.189724e+00
2.207782e+00
2.173635e+00
2.189724e+00
2.192189e+00
2.208633e+00
2.189724e+00
2.207782e+00
2.208633e+00
2.227088e+00
2.192189e+00
2.208633e+00
2.208121e+00
2.224861e+00
2.208633e+00
2.227088e+00
2.224861e+00
2.243649e+00
2.208121e+00
2.224861e+00
2.221491e+00
2.238472e+00
2.224861e+00
2.243649e+00
2.238472e+00
2.257533e+00
2.221491e+00
2.238472e+00
2.232354e+00
2.249525e+00
2.238472e+00
2.257533e+00
2.249525e+00
2.268802e+00
2.232354e+00
2.249525e+00
2.240756e+00
2.258070e+00
2.249525e+00
2.268802e+00
2.258070e+00
2.277509e+00
2.240756e+00
2.258070e+00
2.246731e+00
2.264145e+00
2.258070e+00
2.277509e+00
2.264145e+00
2.283698e+00
2.246731e+00
2.264145e+00
2.250306e+00
2.267778e+00
2.264145e+00
2.283698e+00
2.267778e+00
2.287398e+00
2.250306e+00
2.267778e+00
2.251496e+00
2.268987e+00
2.267778e+00
2.287398e+00
2.268987e+00
2.288630e+00
</DataArray>
<DataArray type="Float32" Name="V3" format="ascii">
0.000000e+00
0.000000e+00
3.130367e-02
3.076753e-02
0.000000e+00
0.000000e+00
3.076753e-02
3.013913e-02
3.130367e-02
3.076753e-02
6.253481e-02
6.146307e-02
3.076753e-02
3.013913e-02
6.146307e-02
6.020686e-02
6.253481e-02
6.146307e-02
9.362049e-02
9.201438e-02
6.146307e-02
6.020686e-02
9.201438e-02
9.013180e-02
9.362049e-02
9.201438e-02
1.244882e-01
1.223495e-01
9.201438e-02
9.013180e-02
1.223495e-01
1.198427e-01
1.244882e-01
1.223495e-01
1.550657e-01
1.523969e-01
1.223495e-01
1.198427e-01
1.523969e-01
1.492687e-01
1.550657e-01
1.523969e-01
1.852810e-01
1.820852e-01
1.523969e-01
1.492687e-01
1.820852e-01
1.783391e-01
1.852810e-01
1.820852e-01
2.150627e-01
2.113434e-01
1.820852e-01
1.783391e-01
2.113434e-01
2.069837e-01
2.150627e-01
2.113434e-01
2.443397e-01
2.401011e-01
2.113434e-01
2.069837e-01
2.401011e-01
2.351327e-01
2.443397e-01
2.401011e-01
2.730416e-01
2.682885e-01
2.401011e-01
2.351327e-01
2.682885e-01
2.627169e-01
2.730416e-01
2.682885e-01
3.010985e-01
2.958363e-01
2.682885e-01
2.627169e-01
2.958363e-01
2.896678e-01
3.010985e-01
2.958363e-01
3.284415e-01
3.226761e-01
2.958363e-01
2.896678e-01
3.226761e-01
3.159176e-01
3.284415e-01
3.226761e-01
3.550022e-01
3.487401e-01
3.226761e-01
3.159176e-01
3.487401e-01
3.413993e-01
3.550022e-01
3.487401e-01
3.807135e-01
3.739617e-01
3.487401e-01
3.413993e-01
3.739617e-01
3.660467e-01
3.807135e-01
3.739617e-01
4.055089e-01
3.982749e-01
3.739617e-01
3.660467e-01
3.982749e-01
3.897945e-01
4.055089e-01
3.982749e-01
4.293231e-01
4.216151e-01
3.982749e-01
3.897945e-01
4.216151e-01
4.125788e-01
4.293231e-01
4.216151e-01
4.520920e-01
4.439185e-01
4.216151e-01
4.125788e-01
4.439185e-01
4.343363e-01
4.520920e-01
4.439185e-01
4.737526e-01
4.651228e-01
4.439185e-01
4.343363e-01
4.651228e-01
4.550053e-01
4.737526e-01
4.651228e-01
4.942432e-01
4.851667e-01
4.651228e-01
4.550053e-01
4.851667e-01
4.745252e-01
4.942432e-01
4.851667e-01
5.135037e-01
5.039905e-01
4.851667e-01
4.745252e-01
5.039905e-01
4.928366e-01
5.135037e-01
5.039905e-01
5.314750e-01
5.215356e-01
5.039905e-01
4.928366e-01
5.215356e-01
5.098818e-01
5.314750e-01
5.215356e-01
5.480998e-01
5.377453e-01
5.215356e-01
5.098818e-01
5.377453e-01
5.256044e-01
5.480998e-01
5.377453e-01
5.633223e-01
5.525641e-01
5.377453e-01
5.256044e-01
5.525641e-01
5.399495e-01
5.633223e-01
5.525641e-01
5.770883e-01
5.659384e-01
5.525641e-01
5.399495e-01
5.659384e-01
5.528642e-01
5.770883e-01
5.659384e-01
5.893454e-01
5.778163e-01
5.659384e-01
5.528642e-01
5.778163e-01
5.642968e-01
5.893454e-01
5.778163e-01
6.000430e-01
5.881473e-01
5.778163e-01
5.642968e-01
5.881473e-01
5.741977e-01
6.000430e-01
5.881473e-01
6.091321e-01
5.968833e-01
5.881473e-01
5.741977e-01
5.968833e-01
5.825193e-01
6.091321e-01
5.968833e-01
6.165658e-01
6.039777e-01
5.968833e-01
5.825193e-01
6.039777e-01
5.892155e-01
6.165658e-01
6.039777e-01
6.222990e-01
6.093861e-01
6.039777e-01
5.892155e-01
6.093861e-01
5.942426e-01
6.222990e-01
6.093861e-01
6.262888e-01
6.130659e-01
6.093861e-01
5.942426e-01
6.130659e-01
5.975589e-01
6.262888e-01
6.130659e-01
6.284941e-01
6.149769e-01
6.130659e-01
5.975589e-01
6.149769e-01
5.991248e-01
6.284941e-01
6.149769e-01
6.288760e-01
6.150807e-01
6.149769e-01
5.991248e-01
6.150807e-01
5.989030e-01
6.288760e-01
6.150807e-01
6.273977e-01
6.133416e-01
6.150807e-01
5.989030e-01
6.133416e-01
5.968586e-01
6.273977e-01
6.133416e-01
6.240244e-01
6.097256e-01
6.133416e-01
5.968586e-01
6.097256e-01
5.929592e-01
6.240244e-01
6.097256e-01
6.187237e-01
6.042014e-01
6.097256e-01
5.929592e-01
6.042014e-01
5.871750e-01
6.187237e-01
6.042014e-01
6.114652e-01
5.967400e-01
6.042014e-01
5.871750e-01
5.967400e-01
5.794787e-01
6.114652e-01
5.967400e-01
6.022205e-01
5.873146e-01
5.967400e-01
5.794787e-01
5.873146e-01
5.698459e-01
6.022205e-01
5.873146e-01
5.909635e-01
5.759010e-01
5.873146e-01
5.698459e-01
5.759010e-01
5.582554e-01
5.909635e-01
5.759010e-01
5.776701e-01
5.624775e-01
5.759010e-01
5.582554e-01
5.624775e-01
5.446887e-01
5.776701e-01
5.624775e-01
5.623182e-01
5.470247e-01
5.624775e-01
5.446887e-01
5.470247e-01
5.291311e-01
5.623182e-01
5.470247e-01
5.448876e-01
5.295257e-01
5.470247e-01
5.291311e-01
5.295257e-01
5.115711e-01
5.448876e-01
5.295257e-01
5.253600e-01
5.099660e-01
5.295257e-01
5.115711e-01
5.099660e-01
4.920013e-01
5.253600e-01
5.099660e-01
5.037191e-01
4.883335e-01
5.099660e-01
4.920013e-01
4.883335e-01
4.704188e-01
5.037191e-01
4.883335e-01
4.799508e-01
4.646183e-01
4.883335e-01
4.704188e-01
4.646183e-01
4.468257e-01
4.799508e-01
4.646183e-01
4.540439e-01
4.388143e-01
4.646183e-01
4.468257e-01
4.388143e-01
4.212316e-01
4.540439e-01
4.388143e-01
4.259946e-01
4.109220e-01
4.388143e-01
4.212316e-01
4.109220e-01
3.936554e-01
4.259946e-01
4.109220e-01
3.958336e-01
3.809713e-01
4.109220e-01
3.936554e-01
3.809713e-01
3.641107e-01
3.958336e-01
3.809713e-01
3.639171e-01
3.492956e-01
3.809713e-01
3.641107e-01
3.492956e-01
3.323974e-01
3.639171e-01
3.492956e-01
3.329842e-01
3.189758e-01
3.492956e-01
3.323974e-01
3.189758e-01
3.029325e-01
3.329842e-01
3.189758e-01
3.041774e-01
2.908794e-01
3.189758e-01
3.029325e-01
2.908794e-01
2.757902e-01
3.041774e-01
2.908794e-01
2.772226e-01
2.647196e-01
2.908794e-01
2.757902e-01
2.647196e-01
2.506298e-01
2.772226e-01
2.647196e-01
2.518006e-01
2.401689e-01
2.647196e-01
2.506298e-01
2.401689e-01
2.271244e-01
2.518006e-01
2.401689e-01
2.276448e-01
2.169429e-01
2.401689e-01
2.271244e-01
2.169429e-01
2.049810e-01
2.276448e-01
2.169429e-01
2.045259e-01
1.947934e-01
2.169429e-01
2.049810e-01
1.947934e-01
1.839397e-01
2.045259e-01
1.947934e-01
1.822498e-01
1.735095e-01
1.947934e-01
1.839397e-01
1.735095e-01
1.637777e-01
1.822498e-01
1.735095e-01
1.606539e-01
1.529152e-01
1.735095e-01
1.637777e-01
1.529152e-01
1.443079e-01
1.606539e-01
1.529152e-01
1.396024e-01
1.328648e-01
1.529152e-01
1.443079e-01
1.328648e-01
1.253767e-01
1.396024e-01
1.328648e-01
1.189827e-01
1.132392e-01
1.328648e-01
1.253767e-01
1.132392e-01
1.068590e-01
1.189827e-01
1.132392e-01
9.870103e-02
9.394081e-02
1.132392e-01
1.068590e-01
9.394081e-02
8.865459e-02
9.870103e-02
9.394081e-02
7.867927e-02
7.489010e-02
9.394081e-02
8.865459e-02
7.489010e-02
7.068307e-02
7.867927e-02
7.489010e-02
5.885152e-02
5.602162e-02
7.489010e-02
7.068307e-02
5.602162e-02
5.288002e-02
5.885152e-02
5.602162e-02
3.916136e-02
3.728078e-02
5.602162e-02
5.288002e-02
3.728078e-02
3.519318e-02
3.916136e-02
3.728078e-02
1.955922e-02
1.862080e-02
3.728078e-02
3.519318e-02
1.862080e-02
1.757910e-02
1.955922e-02
1.862080e-02
0.000000e+00
0.000000e+00
1.862080e-02
1.757910e-02
0.000000e+00
0.000000e+00
</DataArray>
<DataArray type="Float32" Name="V4" format="ascii">
8.500000e-01
9.250000e-01
8.500000e-01
9.250000e-01
9.250000e-01
1.000000e+00