<?xml version="1.0"?>
<VTKFile type="UnstructuredGrid" version="0.1" byte_order="LittleEndian" compressor="vtkZLibDataCompressor">
<UnstructuredGrid>
<Piece NumberOfPoints="504" NumberOfCells="126">
<Points>
<DataArray type="Float32" NumberOfComponents="3" format="ascii">
0.000000e+00 4.518941e-01 0.000000e+00
0.000000e+00 4.800315e-01 0.000000e+00
3.614480e-02 4.519022e-01 0.000000e+00
3.613813e-02 4.800340e-01 0.000000e+00
0.000000e+00 4.800315e-01 0.000000e+00
0.000000e+00 5.131250e-01 0.000000e+00
3.613813e-02 4.800340e-01 0.000000e+00
3.613457e-02 5.131250e-01 0.000000e+00
3.614480e-02 4.519022e-01 0.000000e+00
3.613813e-02 4.800340e-01 0.000000e+00
7.228863e-02 4.519174e-01 0.000000e+00
7.227521e-02 4.800422e-01 0.000000e+00
3.613813e-02 4.800340e-01 0.000000e+00
3.613457e-02 5.131250e-01 0.000000e+00
7.227521e-02 4.800422e-01 0.000000e+00
7.226800e-02 5.131250e-01 0.000000e+00
7.228863e-02 4.519174e-01 0.000000e+00
7.227521e-02 4.800422e-01 0.000000e+00
1.084301e-01 4.519426e-01 0.000000e+00
1.084100e-01 4.800559e-01 0.000000e+00
7.227521e-02 4.800422e-01 0.000000e+00
7.226800e-02 5.131250e-01 0.000000e+00
1.084100e-01 4.800559e-01 0.000000e+00
1.083992e-01 5.131250e-01 0.000000e+00
1.084301e-01 4.519426e-01 0.000000e+00
1.084100e-01 4.800559e-01 0.000000e+00
1.445680e-01 4.519779e-01 0.000000e+00
1.445413e-01 4.800750e-01 0.000000e+00
1.084100e-01 4.800559e-01 0.000000e+00
1.083992e-01 5.131250e-01 0.000000e+00
1.445413e-01 4.800750e-01 0.000000e+00
1.445270e-01 5.131250e-01 0.000000e+00
1.445680e-01 4.519779e-01 0.000000e+00
1.445413e-01 4.800750e-01 0.000000e+00
1.807013e-01 4.520233e-01 0.000000e+00
1.806680e-01 4.800996e-01 0.000000e+00
1.445413e-01 4.800750e-01 0.000000e+00
1.445270e-01 5.131250e-01 0.000000e+00
1.806680e-01 4.800996e-01 0.000000e+00
1.806502e-01 5.131250e-01 0.000000e+00
1.807013e-01 4.520233e-01 0.000000e+00
1.806680e-01 4.800996e-01 0.000000e+00
2.168287e-01 4.520786e-01 0.000000e+00
2.167889e-01 4.801296e-01 0.000000e+00
1.806680e-01 4.800996e-01 0.000000e+00
1.806502e-01 5.131250e-01 0.000000e+00
2.167889e-01 4.801296e-01 0.000000e+00
2.167677e-01 5.131250e-01 0.000000e+00
2.168287e-01 4.520786e-01 0.000000e+00
2.167889e-01 4.801296e-01 0.000000e+00
2.529490e-01 4.521440e-01 0.000000e+00
2.529029e-01 4.801650e-01 0.000000e+00
2.167889e-01 4.801296e-01 0.000000e+00
2.167677e-01 5.131250e-01 0.000000e+00
2.529029e-01 4.801650e-01 0.000000e+00
2.528783e-01 5.131250e-01 0.000000e+00
2.529490e-01 4.521440e-01 0.000000e+00
2.529029e-01 4.801650e-01 0.000000e+00
2.890609e-01 4.522192e-01 0.000000e+00
2.890086e-01 4.802057e-01 0.000000e+00
2.529029e-01 4.801650e-01 0.000000e+00
2.528783e-01 5.131250e-01 0.000000e+00
2.890086e-01 4.802057e-01 0.000000e+00
2.889809e-01 5.131250e-01 0.000000e+00
2.890609e-01 4.522192e-01 0.000000e+00
2.890086e-01 4.802057e-01 0.000000e+00
3.251633e-01 4.523043e-01 0.000000e+00
3.251050e-01 4.802519e-01 0.000000e+00
2.890086e-01 4.802057e-01 0.000000e+00
2.889809e-01 5.131250e-01 0.000000e+00
3.251050e-01 4.802519e-01 0.000000e+00
3.250742e-01 5.131250e-01 0.000000e+00
3.251633e-01 4.523043e-01 0.000000e+00
3.251050e-01 4.802519e-01 0.000000e+00
3.612549e-01 4.523992e-01 0.000000e+00
3.611907e-01 4.803033e-01 0.000000e+00
3.251050e-01 4.802519e-01 0.000000e+00
3.250742e-01 5.131250e-01 0.000000e+00
3.611907e-01 4.803033e-01 0.000000e+00
3.611570e-01 5.131250e-01 0.000000e+00
3.612549e-01 4.523992e-01 0.000000e+00
3.611907e-01 4.803033e-01 0.000000e+00
3.973343e-01 4.525039e-01 0.000000e+00
3.972645e-01 4.803600e-01 0.000000e+00
3.611907e-01 4.803033e-01 0.000000e+00
3.611570e-01 5.131250e-01 0.000000e+00
3.972645e-01 4.803600e-01 0.000000e+00
3.972281e-01 5.131250e-01 0.000000e+00
3.973343e-01 4.525039e-01 0.000000e+00
3.972645e-01 4.803600e-01 0.000000e+00
4.334002e-01 4.526182e-01 0.000000e+00
4.333250e-01 4.804220e-01 0.000000e+00
3.972645e-01 4.803600e-01 0.000000e+00
3.972281e-01 5.131250e-01 0.000000e+00
4.333250e-01 4.804220e-01 0.000000e+00
4.332862e-01 5.131250e-01 0.000000e+00
4.334002e-01 4.526182e-01 0.000000e+00
4.333250e-01 4.804220e-01 0.000000e+00
4.694512e-01 4.527420e-01 0.000000e+00
4.693710e-01 4.804891e-01 0.000000e+00
4.333250e-01 4.804220e-01 0.000000e+00
4.332862e-01 5.131250e-01 0.000000e+00
4.693710e-01 4.804891e-01 0.000000e+00
4.693300e-01 5.131250e-01 0.000000e+00
4.694512e-01 4.527420e-01 0.000000e+00
4.693710e-01 4.804891e-01 0.000000e+00
5.054859e-01 4.528753e-01 0.000000e+00
5.054011e-01 4.805615e-01 0.000000e+00
4.693710e-01 4.804891e-01 0.000000e+00
4.693300e-01 5.131250e-01 0.000000e+00
5.054011e-01 4.805615e-01 0.000000e+00
5.053583e-01 5.131250e-01 0.000000e+00
5.054859e-01 4.528753e-01 0.000000e+00
5.054011e-01 4.805615e-01 0.000000e+00
5.415028e-01 4.530180e-01 0.000000e+00
5.414139e-01 4.806389e-01 0.000000e+00
5.054011e-01 4.805615e-01 0.000000e+00
5.053583e-01 5.131250e-01 0.000000e+00
5.414139e-01 4.806389e-01 0.000000e+00
5.413697e-01 5.131250e-01 0.000000e+00
5.415028e-01 4.530180e-01 0.000000e+00
5.414139e-01 4.806389e-01 0.000000e+00
5.775004e-01 4.531700e-01 0.000000e+00
5.774079e-01 4.807214e-01 0.000000e+00
5.414139e-01 4.806389e-01 0.000000e+00
5.413697e-01 5.131250e-01 0.000000e+00
5.774079e-01 4.807214e-01 0.000000e+00
5.773629e-01 5.131250e-01 0.000000e+00
5.775004e-01 4.531700e-01 0.000000e+00
5.774079e-01 4.807214e-01 0.000000e+00
6.134771e-01 4.533311e-01 0.000000e+00
6.133817e-01 4.808090e-01 0.000000e+00
5.774079e-01 4.807214e-01 0.000000e+00
5.773629e-01 5.131250e-01 0.000000e+00
6.133817e-01 4.808090e-01 0.000000e+00
6.133365e-01 5.131250e-01 0.000000e+00
6.134771e-01 4.533311e-01 0.000000e+00
6.133817e-01 4.808090e-01 0.000000e+00
6.494312e-01 4.535014e-01 0.000000e+00
6.493338e-01 4.809016e-01 0.000000e+00
6.133817e-01 4.808090e-01 0.000000e+00
6.133365e-01 5.131250e-01 0.000000e+00
6.493338e-01 4.809016e-01 0.000000e+00
6.492891e-01 5.131250e-01 0.000000e+00
6.494312e-01 4.535014e-01 0.000000e+00
6.493338e-01 4.809016e-01 0.000000e+00
6.853609e-01 4.536805e-01 0.000000e+00
6.852625e-01 4.809991e-01 0.000000e+00
6.493338e-01 4.809016e-01 0.000000e+00
6.492891e-01 5.131250e-01 0.000000e+00
6.852625e-01 4.809991e-01 0.000000e+00
6.852195e-01 5.131250e-01 0.000000e+00
6.853609e-01 4.536805e-01 0.000000e+00
6.852625e-01 4.809991e-01 0.000000e+00
7.212645e-01 4.538685e-01 0.000000e+00
7.211664e-01 4.811016e-01 0.000000e+00
6.852625e-01 4.809991e-01 0.000000e+00
6.852195e-01 5.131250e-01 0.000000e+00
7.211664e-01 4.811016e-01 0.000000e+00
7.211262e-01 5.131250e-01 0.000000e+00
7.212645e-01 4.538685e-01 0.000000e+00
7.211664e-01 4.811016e-01 0.000000e+00
7.571399e-01 4.540652e-01 0.000000e+00
7.570437e-01 4.812090e-01 0.000000e+00
7.211664e-01 4.811016e-01 0.000000e+00
7.211262e-01 5.131250e-01 0.000000e+00
7.570437e-01 4.812090e-01 0.000000e+00
7.570079e-01 5.131250e-01 0.000000e+00
7.571399e-01 4.540652e-01 0.000000e+00
7.570437e-01 4.812090e-01 0.000000e+00
7.929850e-01 4.542706e-01 0.000000e+00
7.928928e-01 4.813214e-01 0.000000e+00
7.570437e-01 4.812090e-01 0.000000e+00
7.570079e-01 5.131250e-01 0.000000e+00
7.928928e-01 4.813214e-01 0.000000e+00
7.928634e-01 5.131250e-01 0.000000e+00
7.929850e-01 4.542706e-01 0.000000e+00
7.928928e-01 4.813214e-01 0.000000e+00
8.287977e-01 4.544845e-01 0.000000e+00
8.287120e-01 4.814387e-01 0.000000e+00
7.928928e-01 4.813214e-01 0.000000e+00
7.928634e-01 5.131250e-01 0.000000e+00
8.287120e-01 4.814387e-01 0.000000e+00
8.286914e-01 5.131250e-01 0.000000e+00
8.287977e-01 4.544845e-01 0.000000e+00
8.287120e-01 4.814387e-01 0.000000e+00
8.645754e-01 4.547067e-01 0.000000e+00
8.644995e-01 4.815610e-01 0.000000e+00
8.287120e-01 4.814387e-01 0.000000e+00
8.286914e-01 5.131250e-01 0.000000e+00
8.644995e-01 4.815610e-01 0.000000e+00
8.644909e-01 5.131250e-01 0.000000e+00
8.645754e-01 4.547067e-01 0.000000e+00
8.644995e-01 4.815610e-01 0.000000e+00
9.003155e-01 4.549374e-01 0.000000e+00
9.002534e-01 4.816883e-01 0.000000e+00
8.644995e-01 4.815610e-01 0.000000e+00
8.644909e-01 5.131250e-01 0.000000e+00
9.002534e-01 4.816883e-01 0.000000e+00
9.002609e-01 5.131250e-01 0.000000e+00
9.003155e-01 4.549374e-01 0.000000e+00
9.002534e-01 4.816883e-01 0.000000e+00
9.360150e-01 4.551763e-01 0.000000e+00
9.359721e-01 4.818209e-01 0.000000e+00
9.002534e-01 4.816883e-01 0.000000e+00
9.002609e-01 5.131250e-01 0.000000e+00
9.359721e-01 4.818209e-01 0.000000e+00
9.360009e-01 5.131250e-01 0.000000e+00
9.360150e-01 4.551763e-01 0.000000e+00
9.359721e-01 4.818209e-01 0.000000e+00
9.716707e-01 4.554234e-01 0.000000e+00
9.716537e-01 4.819589e-01 0.000000e+00
9.359721e-01 4.818209e-01 0.000000e+00
9.360009e-01 5.131250e-01 0.000000e+00
9.716537e-01 4.819589e-01 0.000000e+00
9.717104e-01 5.131250e-01 0.000000e+00
9.716707e-01 4.554234e-01 0.000000e+00
9.716537e-01 4.819589e-01 0.000000e+00
1.007279e+00 4.556788e-01 0.000000e+00
1.007296e+00 4.821025e-01 0.000000e+00
9.716537e-01 4.819589e-01 0.000000e+00
9.717104e-01 5.131250e-01 0.000000e+00
1.007296e+00 4.821025e-01 0.000000e+00
1.007389e+00 5.131250e-01 0.000000e+00
1.007279e+00 4.556788e-01 0.000000e+00
1.007296e+00 4.821025e-01 0.000000e+00
1.042835e+00 4.559425e-01 0.000000e+00
1.042898e+00 4.822521e-01 0.000000e+00
1.007296e+00 4.821025e-01 0.000000e+00
1.007389e+00 5.131250e-01 0.000000e+00
1.042898e+00 4.822521e-01 0.000000e+00
1.043039e+00 5.131250e-01 0.000000e+00
1.042835e+00 4.559425e-01 0.000000e+00
1.042898e+00 4.822521e-01 0.000000e+00
1.078334e+00 4.562145e-01 0.000000e+00
1.078458e+00 4.824083e-01 0.000000e+00
1.042898e+00 4.822521e-01 0.000000e+00
1.043039e+00 5.131250e-01 0.000000e+00
1.078458e+00 4.824083e-01 0.000000e+00
1.078660e+00 5.131250e-01 0.000000e+00
1.078334e+00 4.562145e-01 0.000000e+00
1.078458e+00 4.824083e-01 0.000000e+00
1.113771e+00 4.564950e-01 0.000000e+00
1.113974e+00 4.825717e-01 0.000000e+00
1.078458e+00 4.824083e-01 0.000000e+00
1.078660e+00 5.131250e-01 0.000000e+00
1.113974e+00 4.825717e-01 0.000000e+00
1.114256e+00 5.131250e-01 0.000000e+00
1.113771e+00 4.564950e-01 0.000000e+00
[...]
<PointData>
<DataArray type="Float32" Name="V1" format="ascii">
1.247915e+02
4.641192e+01
1.248387e+02
4.645908e+01
4.842987e+01
1.012076e+01
4.844996e+01
1.014085e+01
1.248581e+02
4.643073e+01
1.249753e+02
4.654794e+01
4.846696e+01
1.013292e+01
4.852155e+01
1.018752e+01
1.250219e+02
4.649684e+01
1.252154e+02
4.669039e+01
4.855405e+01
1.016998e+01
4.864749e+01
1.026343e+01
1.252870e+02
4.661511e+01
1.255577e+02
4.688577e+01
4.869493e+01
1.023567e+01
4.882708e+01
1.036782e+01
1.256540e+02
4.678585e+01
1.260027e+02
4.713453e+01
4.888980e+01
1.033001e+01
4.906086e+01
1.050107e+01
1.261240e+02
4.700956e+01
1.265517e+02
4.743726e+01
4.913914e+01
1.045322e+01
4.934948e+01
1.066357e+01
1.266980e+02
4.728688e+01
1.272058e+02
4.779472e+01
4.944357e+01
1.060562e+01
4.969374e+01
1.085578e+01
1.273775e+02
4.761856e+01
1.279668e+02
4.820788e+01
4.980390e+01
1.078762e+01
5.009456e+01
1.107829e+01
1.281643e+02
4.800549e+01
1.288366e+02
4.867782e+01
5.022109e+01
1.099976e+01
5.055305e+01
1.133172e+01
1.290602e+02
4.844873e+01
1.298173e+02
4.920583e+01
5.069628e+01
1.124264e+01
5.107046e+01
1.161682e+01
1.300676e+02
4.894950e+01
1.309115e+02
4.979335e+01
5.123075e+01
1.151697e+01
5.164823e+01
1.193446e+01
1.311890e+02
4.950918e+01
1.321219e+02
5.044201e+01
5.182598e+01
1.182359e+01
5.228798e+01
1.228559e+01
1.324272e+02
5.012935e+01
1.334515e+02
5.115361e+01
5.248365e+01
1.216343e+01
5.299153e+01
1.267131e+01
1.337854e+02
5.081175e+01
1.349038e+02
5.193017e+01
5.320560e+01
1.253754e+01
5.376091e+01
1.309285e+01
1.352669e+02
5.155836e+01
1.364825e+02
5.277393e+01
5.399392e+01
1.294713e+01
5.459839e+01
1.355159e+01
1.368756e+02
5.237136e+01
1.381916e+02
5.368735e+01
5.485092e+01
1.339354e+01
5.550646e+01
1.404908e+01
1.386155e+02
5.325316e+01
1.400354e+02
5.467311e+01
5.577914e+01
1.387829e+01
5.648791e+01
1.458706e+01
1.404909e+02
5.420644e+01
1.420186e+02
5.573420e+01
5.678140e+01
1.440310e+01
5.754580e+01
1.516750e+01
1.425064e+02
5.523415e+01
1.441461e+02
5.687387e+01
5.786082e+01
1.496989e+01
5.868355e+01
1.579261e+01
1.446671e+02
5.633956e+01
1.464232e+02
5.809566e+01
5.902083e+01
1.558086e+01
5.990489e+01
1.646492e+01
1.469781e+02
5.752627e+01
1.488553e+02
5.940348e+01
6.026522e+01
1.623848e+01
6.121402e+01
1.718728e+01
1.494446e+02
5.879827e+01
1.514479e+02
6.080160e+01
6.159817e+01
1.694561e+01
6.261556e+01
1.796300e+01
1.520722e+02
6.015997e+01
1.542069e+02
6.229467e+01
6.302433e+01
1.770551e+01
6.411469e+01
1.879586e+01
1.548662e+02
6.161629e+01
1.571377e+02
6.388781e+01
6.454885e+01
1.852196e+01
6.571719e+01
1.969031e+01
1.578318e+02
6.317270e+01
1.602458e+02
6.558663e+01
6.617744e+01
1.939941e+01
6.742957e+01
2.065154e+01
1.609739e+02
6.483531e+01
1.635359e+02
6.739728e+01
6.791653e+01
2.034307e+01
6.925919e+01
2.168573e+01
1.642964e+02
6.661105e+01
1.670119e+02
6.932655e+01
6.977333e+01
2.135916e+01
7.121447e+01
2.280030e+01
1.678021e+02
6.850775e+01
1.706763e+02
7.138192e+01
7.175597e+01
2.245516e+01
7.330504e+01
2.400422e+01
1.714919e+02
7.053433e+01
1.745292e+02
7.357168e+01
7.387375e+01
2.364017e+01
7.554209e+01
2.530851e+01
1.753638e+02
7.270113e+01
1.785677e+02
7.590504e+01
7.613731e+01
2.492536e+01
7.793874e+01
2.672680e+01
1.794121e+02
7.502014e+01
1.827842e+02
7.839224e+01
7.855896e+01
2.632465e+01
8.051049e+01
2.827618e+01
1.836253e+02
7.750544e+01
1.871646e+02
8.104476e+01
8.115308e+01
2.785551e+01
8.327588e+01
2.997832e+01
1.879844e+02
8.017375e+01
1.916861e+02
8.387542e+01
8.393655e+01
2.954022e+01
8.625735e+01
3.186103e+01
1.924598e+02
8.304501e+01
1.963133e+02
8.689852e+01
8.692930e+01
3.140748e+01
8.948225e+01
3.396043e+01
1.970076e+02
8.614309e+01
2.009944e+02
9.012986e+01
9.015491e+01
3.349488e+01
9.298414e+01
3.632411e+01
2.015650e+02
8.949662e+01
2.056550e+02
9.358661e+01
9.364092e+01
3.585253e+01
9.680426e+01
3.901586e+01
2.060444e+02
9.313958e+01
2.101918e+02
9.728697e+01
9.741841e+01
3.854880e+01
1.009927e+02
4.212313e+01
2.103254e+02
9.711228e+01
2.144635e+02
1.012504e+02
1.015190e+02
4.168032e+01
1.056086e+02
4.576992e+01
2.142446e+02
1.014641e+02
2.182825e+02
1.055020e+02
1.059645e+02
4.539106e+01
1.107163e+02
5.014281e+01
2.175773e+02
1.062664e+02
2.214082e+02
1.100974e+02
1.107361e+02
4.991510e+01
1.163759e+02
5.555488e+01
2.199893e+02
1.116701e+02
2.235561e+02
1.152369e+02
1.156887e+02
5.569580e+01
1.226346e+02
6.264171e+01
2.208588e+02
1.181679e+02
2.244711e+02
1.217802e+02
1.203651e+02
6.387167e+01
1.295278e+02
7.303439e+01
2.196288e+02
1.271601e+02
2.241671e+02
1.316985e+02
1.247646e+02
7.872247e+01
1.356235e+02
8.958135e+01
2.203137e+02
1.356517e+02
2.244904e+02
1.398284e+02
1.331188e+02
9.031151e+01
1.398004e+02
9.699311e+01
2.230743e+02
1.411760e+02
2.281622e+02
1.462639e+02
1.394454e+02
9.713131e+01
1.455636e+02
1.032494e+02
2.279152e+02
1.464042e+02
2.336987e+02
1.521878e+02
1.456853e+02
1.031227e+02
1.514002e+02
1.088375e+02
2.341520e+02
1.516552e+02
2.404233e+02
1.579266e+02
1.518917e+02
1.084882e+02
1.572469e+02
1.138433e+02
2.412981e+02
1.569528e+02
2.478522e+02
1.635070e+02
1.579762e+02
1.133392e+02
1.629910e+02
1.183540e+02
2.489955e+02
1.622411e+02
2.556567e+02
1.689023e+02
1.638841e+02
1.177434e+02
1.685712e+02
1.224305e+02
2.569664e+02
1.674507e+02
2.635865e+02
1.740708e+02
1.695676e+02
1.217530e+02
1.739342e+02
1.261196e+02
2.649890e+02
1.725146e+02
2.714454e+02
1.789711e+02
1.749849e+02
1.254080e+02
1.790342e+02
1.294573e+02
2.728840e+02
1.773743e+02
2.790764e+02
1.835666e+02
1.800997e+02
1.287383e+02
1.838326e+02
1.324712e+02
2.805061e+02
1.819802e+02
2.863525e+02
1.878266e+02
1.848812e+02
1.317660e+02
1.882969e+02
1.351817e+02
2.877372e+02
1.862915e+02
2.931715e+02
1.917258e+02
1.893038e+02
1.345069e+02
1.924008e+02
1.376039e+02
2.944817e+02
1.902750e+02
2.994510e+02
1.952442e+02
1.933464e+02
1.369723e+02
1.961230e+02
1.397489e+02
3.006630e+02
1.939040e+02
3.051249e+02
1.983659e+02
1.969918e+02
1.391704e+02
1.994461e+02
1.416247e+02
3.062196e+02
1.971569e+02
3.101409e+02
2.010783e+02
2.002264e+02
1.411067e+02
2.023568e+02
1.432370e+02
3.111031e+02
2.000170e+02
3.144579e+02
2.033719e+02
2.030393e+02
1.427850e+02
2.048443e+02
1.445900e+02
3.152757e+02
2.024709e+02
3.180442e+02
2.052394e+02
2.054220e+02
1.442082e+02
2.069004e+02
1.456866e+02
3.187083e+02
2.045084e+02
3.208755e+02
2.066756e+02
2.073681e+02
1.453781e+02
2.085189e+02
1.465288e+02
3.213792e+02
2.061217e+02
3.229344e+02
2.076769e+02
2.088728e+02
1.462958e+02
2.096953e+02
1.471183e+02
3.232728e+02
2.073050e+02
3.242087e+02
2.082408e+02
2.099326e+02
1.469621e+02
2.104263e+02
1.474558e+02
3.243786e+02
2.080541e+02
3.246910e+02
2.083665e+02
2.105453e+02
1.473775e+02
2.107099e+02
1.475421e+02
</DataArray>
<DataArray type="Float32" Name="V2" format="ascii">
4.518941e-01
4.800315e-01
4.526629e-01
4.807857e-01
4.800315e-01
5.131250e-01
4.807857e-01
5.138664e-01
4.526629e-01
4.807857e-01
4.549589e-01
4.830481e-01
4.807857e-01
5.138664e-01
4.830481e-01
5.160894e-01
4.549589e-01
4.830481e-01
4.587819e-01
4.868150e-01
4.830481e-01
5.160894e-01
4.868150e-01
5.197909e-01
4.587819e-01
4.868150e-01
4.641263e-01
4.920811e-01
4.868150e-01
5.197909e-01
4.920811e-01
5.249654e-01
4.641263e-01
4.920811e-01
4.709843e-01
4.988386e-01
4.920811e-01
5.249654e-01
4.988386e-01
5.316055e-01
4.709843e-01
4.988386e-01
4.793459e-01
5.070776e-01
4.988386e-01
5.316055e-01
5.070776e-01
5.397014e-01
4.793459e-01
5.070776e-01
4.891990e-01
5.167863e-01
5.070776e-01
5.397014e-01
5.167863e-01
5.492414e-01
4.891990e-01
5.167863e-01
5.005291e-01
5.279504e-01
5.167863e-01
5.492414e-01
5.279504e-01
5.602115e-01
5.005291e-01
5.279504e-01
5.133198e-01
5.405536e-01
5.279504e-01
5.602115e-01
5.405536e-01
5.725957e-01
5.133198e-01
5.405536e-01
5.275521e-01
5.545775e-01
5.405536e-01
5.725957e-01
5.545775e-01
5.863760e-01
5.275521e-01
5.545775e-01
5.432054e-01
5.700015e-01
5.545775e-01
5.863760e-01
5.700015e-01
6.015320e-01
5.432054e-01
5.700015e-01
5.602565e-01
5.868030e-01
5.700015e-01
6.015320e-01
5.868030e-01
6.180417e-01
5.602565e-01
5.868030e-01
5.786805e-01
6.049572e-01
5.868030e-01
6.180417e-01
6.049572e-01
6.358806e-01
5.786805e-01
6.049572e-01
5.984500e-01
6.244374e-01
6.049572e-01
6.358806e-01
6.244374e-01
6.550225e-01
5.984500e-01
6.244374e-01
6.195358e-01
6.452148e-01
6.244374e-01
6.550225e-01
6.452148e-01
6.754392e-01
6.195358e-01
6.452148e-01
6.419066e-01
6.672587e-01
6.452148e-01
6.754392e-01
6.672587e-01
6.971003e-01
6.419066e-01
6.672587e-01
6.655292e-01
6.905362e-01
6.672587e-01
6.971003e-01
6.905362e-01
7.199739e-01
6.655292e-01
6.905362e-01
6.903682e-01
7.150127e-01
6.905362e-01
7.199739e-01
7.150127e-01
7.440257e-01
6.903682e-01
7.150127e-01
7.163864e-01
7.406516e-01
7.150127e-01
7.440257e-01
7.406516e-01
7.692199e-01
7.163864e-01
7.406516e-01
7.435447e-01
7.674145e-01
7.406516e-01
7.692199e-01
7.674145e-01
7.955189e-01
7.435447e-01
7.674145e-01
7.718020e-01
7.952611e-01
7.674145e-01
7.955189e-01
7.952611e-01
8.228833e-01
7.718020e-01
7.952611e-01
8.011153e-01
8.241494e-01
7.952611e-01
8.228833e-01
8.241494e-01
8.512718e-01
8.011153e-01
8.241494e-01
8.314398e-01
8.540356e-01
8.241494e-01
8.512718e-01
8.540356e-01
8.806417e-01
8.314398e-01
8.540356e-01
8.627290e-01
8.848742e-01
8.540356e-01
8.806417e-01
8.848742e-01
9.109488e-01
8.627290e-01
8.848742e-01
8.949344e-01
9.166183e-01
8.848742e-01
9.109488e-01
9.166183e-01
9.421473e-01
8.949344e-01
9.166183e-01
9.280058e-01
9.492192e-01
9.166183e-01
9.421473e-01
9.492192e-01
9.741901e-01
9.280058e-01
9.492192e-01
9.618912e-01
9.826268e-01
9.492192e-01
9.741901e-01
9.826268e-01
1.007029e+00
9.618912e-01
9.826268e-01
9.965365e-01
1.016790e+00
9.826268e-01
1.007029e+00
1.016790e+00
1.040614e+00
9.965365e-01
1.016790e+00
1.031886e+00
1.051655e+00
1.016790e+00
1.040614e+00
1.051655e+00
1.074896e+00
1.031886e+00
1.051655e+00
1.067882e+00
1.087168e+00
1.051655e+00
1.074896e+00
1.087168e+00
1.109823e+00
1.067882e+00
1.087168e+00
1.104465e+00
1.123275e+00
1.087168e+00
1.109823e+00
1.123275e+00
1.145344e+00
1.104465e+00
1.123275e+00
1.141573e+00
1.159918e+00
1.123275e+00
1.145344e+00
1.159918e+00
1.181408e+00
1.141573e+00
1.159918e+00
1.179140e+00
1.197041e+00
1.159918e+00
1.181408e+00
1.197041e+00
1.217965e+00
1.179140e+00
1.197041e+00
1.217100e+00
1.234587e+00
1.197041e+00
1.217965e+00
1.234587e+00
1.254965e+00
1.217100e+00
1.234587e+00
1.255382e+00
1.272495e+00
1.234587e+00
1.254965e+00
1.272495e+00
1.292361e+00
1.255382e+00
1.272495e+00
1.293909e+00
1.310708e+00
1.272495e+00
1.292361e+00
1.310708e+00
1.330109e+00
1.293909e+00
1.310708e+00
1.332603e+00
1.349165e+00
1.310708e+00
1.330109e+00
1.349165e+00
1.368170e+00
1.332603e+00
1.349165e+00
1.371375e+00
1.387805e+00
1.349165e+00
1.368170e+00
1.387805e+00
1.406512e+00
1.371375e+00
1.387805e+00
1.410127e+00
1.426560e+00
1.387805e+00
1.406512e+00
1.426560e+00
1.445115e+00
1.410127e+00
1.426560e+00
1.448741e+00
1.465351e+00
1.426560e+00
1.445115e+00
1.465351e+00
1.483970e+00
1.448741e+00
1.465351e+00
1.487053e+00
1.504054e+00
1.465351e+00
1.483970e+00
1.504054e+00
1.523070e+00
1.487053e+00
1.504054e+00
1.524799e+00
1.542389e+00
1.504054e+00
1.523070e+00
1.542389e+00
1.562277e+00
1.524799e+00
1.542389e+00
1.561507e+00
1.579552e+00
1.542389e+00
1.562277e+00
1.579552e+00
1.599850e+00
1.561507e+00
1.579552e+00
1.596044e+00
1.614323e+00
1.579552e+00
1.599850e+00
1.614323e+00
1.634817e+00
1.596044e+00
1.614323e+00
1.628232e+00
1.646961e+00
1.614323e+00
1.634817e+00
1.646961e+00
1.667909e+00
1.628232e+00
1.646961e+00
1.658140e+00
1.677441e+00
1.646961e+00
1.667909e+00
1.677441e+00
1.698945e+00
1.658140e+00
1.677441e+00
1.685859e+00
1.705764e+00
1.677441e+00
1.698945e+00
1.705764e+00
1.727868e+00
1.685859e+00
1.705764e+00
1.711468e+00
1.731961e+00
1.705764e+00
1.727868e+00
1.731961e+00
1.754662e+00
1.711468e+00
1.731961e+00
1.735042e+00
1.756078e+00
1.731961e+00
1.754662e+00
1.756078e+00
1.779349e+00
1.735042e+00
1.756078e+00
1.756652e+00
1.778178e+00
1.756078e+00
1.779349e+00
1.778178e+00
1.801972e+00
1.756652e+00
1.778178e+00
1.776369e+00
1.798325e+00
1.778178e+00
1.801972e+00
1.798325e+00
1.822589e+00
1.776369e+00
1.798325e+00
1.794259e+00
1.816587e+00
1.798325e+00
1.822589e+00
1.816587e+00
1.841264e+00
1.794259e+00
1.816587e+00
1.810384e+00
1.833028e+00
1.816587e+00
1.841264e+00
1.833028e+00
1.858064e+00
1.810384e+00
1.833028e+00
1.824800e+00
1.847710e+00
1.833028e+00
1.858064e+00
1.847710e+00
1.873053e+00
1.824800e+00
1.847710e+00
1.837560e+00
1.860691e+00
1.847710e+00
1.873053e+00
1.860691e+00
1.886293e+00
1.837560e+00
1.860691e+00
1.848709e+00
1.872023e+00
1.860691e+00
1.886293e+00
1.872023e+00
1.897840e+00
1.848709e+00
1.872023e+00
1.858290e+00
1.881750e+00
1.872023e+00
1.897840e+00
1.881750e+00
1.907744e+00
1.858290e+00
1.881750e+00
1.866337e+00
1.889915e+00
1.881750e+00
1.907744e+00
1.889915e+00
1.916050e+00
1.866337e+00
1.889915e+00
1.872880e+00
1.896549e+00
1.889915e+00
1.916050e+00
1.896549e+00
1.922796e+00
1.872880e+00
1.896549e+00
1.877945e+00
1.901680e+00
1.896549e+00
1.922796e+00
1.901680e+00
1.928011e+00
1.877945e+00
1.901680e+00
1.881548e+00
1.905330e+00
1.901680e+00
1.928011e+00
1.905330e+00
1.931719e+00
1.881548e+00
1.905330e+00
1.883705e+00
1.907514e+00
1.905330e+00
1.931719e+00
1.907514e+00
1.933937e+00
1.883705e+00
1.907514e+00
1.884423e+00
1.908241e+00
1.907514e+00
1.933937e+00
1.908241e+00
1.934675e+00
</DataArray>
<DataArray type="Float32" Name="V3" format="ascii">
0.000000e+00
0.000000e+00
2.486733e-02
2.415932e-02
0.000000e+00
0.000000e+00
2.415932e-02
2.333078e-02
2.486733e-02
2.415932e-02
4.967254e-02
4.825724e-02
2.415932e-02
2.333078e-02
4.825724e-02
4.660099e-02
4.967254e-02
4.825724e-02
7.435318e-02
7.223223e-02
4.825724e-02
4.660099e-02
7.223223e-02
6.975019e-02
7.435318e-02
7.223223e-02
9.884718e-02
9.602301e-02
7.223223e-02
6.975019e-02
9.602301e-02
9.271801e-02
9.884718e-02
9.602301e-02
1.230927e-01
1.195685e-01
9.602301e-02
9.271801e-02
1.195685e-01
1.154443e-01
1.230927e-01
1.195685e-01
1.470281e-01
1.428080e-01
1.195685e-01
1.154443e-01
1.428080e-01
1.378692e-01
1.470281e-01
1.428080e-01
1.705921e-01
1.656809e-01
1.428080e-01
1.378692e-01
1.656809e-01
1.599333e-01
1.705921e-01
1.656809e-01
1.937241e-01
1.881274e-01
1.656809e-01
1.599333e-01
1.881274e-01
1.815774e-01
1.937241e-01
1.881274e-01
2.163636e-01
2.100878e-01
1.881274e-01
1.815774e-01
2.100878e-01
2.027428e-01
2.163636e-01
2.100878e-01
2.384510e-01
2.315033e-01
2.100878e-01
2.027428e-01
2.315033e-01
2.233716e-01
2.384510e-01
2.315033e-01
2.599272e-01
2.523155e-01
2.315033e-01
2.233716e-01
2.523155e-01
2.434063e-01
2.599272e-01
2.523155e-01
2.807339e-01
2.724667e-01
2.523155e-01
2.434063e-01
2.724667e-01
2.627902e-01
2.807339e-01
2.724667e-01
3.008133e-01
2.919003e-01
2.724667e-01
2.627902e-01
2.919003e-01
2.814673e-01
3.008133e-01
2.919003e-01
3.201089e-01
3.105600e-01
2.919003e-01
2.814673e-01
3.105600e-01
2.993824e-01
3.201089e-01
3.105600e-01
3.385647e-01
3.283909e-01
3.105600e-01
2.993824e-01
3.283909e-01
3.164812e-01
3.385647e-01
3.283909e-01
3.561259e-01
3.453387e-01
3.283909e-01
3.164812e-01
3.453387e-01
3.327105e-01
3.561259e-01
3.453387e-01
3.727387e-01
3.613505e-01
3.453387e-01
3.327105e-01
3.613505e-01
3.480181e-01
3.727387e-01
3.613505e-01
3.883504e-01
3.763741e-01
3.613505e-01
3.480181e-01
3.763741e-01
3.623527e-01
3.883504e-01
3.763741e-01
4.029095e-01
3.903589e-01
3.763741e-01
3.623527e-01
3.903589e-01
3.756644e-01
4.029095e-01
3.903589e-01
4.163656e-01
4.032551e-01
3.903589e-01
3.756644e-01
4.032551e-01
3.879045e-01
4.163656e-01
4.032551e-01
4.286697e-01
4.150146e-01
4.032551e-01
3.879045e-01
4.150146e-01
3.990255e-01
4.286697e-01
4.150146e-01
4.397742e-01
4.255903e-01
4.150146e-01
3.990255e-01
4.255903e-01
4.089816e-01
4.397742e-01
4.255903e-01
4.496327e-01
4.349368e-01
4.255903e-01
4.089816e-01
4.349368e-01
4.177282e-01
4.496327e-01
4.349368e-01
4.582003e-01
4.430100e-01
4.349368e-01
4.177282e-01
4.430100e-01
4.252222e-01
4.582003e-01
4.430100e-01
4.654336e-01
4.497675e-01
4.430100e-01
4.252222e-01
4.497675e-01
4.314226e-01
4.654336e-01
4.497675e-01
4.712906e-01
4.551682e-01
4.497675e-01
4.314226e-01
4.551682e-01
4.362896e-01
4.712906e-01
4.551682e-01
4.757309e-01
4.591730e-01
4.551682e-01
4.362896e-01
4.591730e-01
4.397855e-01
4.757309e-01
4.591730e-01
4.787156e-01
4.617443e-01
4.591730e-01
4.397855e-01
4.617443e-01
4.418747e-01
4.787156e-01
4.617443e-01
4.802073e-01
4.628463e-01
4.617443e-01
4.418747e-01
4.628463e-01
4.425234e-01
4.802073e-01
4.628463e-01
4.801701e-01
4.624448e-01
4.628463e-01
4.425234e-01
4.624448e-01
4.417003e-01
4.801701e-01
4.624448e-01
4.785698e-01
4.605078e-01
4.624448e-01
4.417003e-01
4.605078e-01
4.393762e-01
4.785698e-01
4.605078e-01
4.753732e-01
4.570047e-01
4.605078e-01
4.393762e-01
4.570047e-01
4.355245e-01
4.753732e-01
4.570047e-01
4.705487e-01
4.519070e-01
4.570047e-01
4.355245e-01
4.519070e-01
4.301216e-01
4.705487e-01
4.519070e-01
4.640659e-01
4.451881e-01
4.519070e-01
4.301216e-01
4.451881e-01
4.231468e-01
4.640659e-01
4.451881e-01
4.558957e-01
4.368231e-01
4.451881e-01
4.231468e-01
4.368231e-01
4.145825e-01
4.558957e-01
4.368231e-01
4.460097e-01
4.267887e-01
4.368231e-01
4.145825e-01
4.267887e-01
4.044150e-01
4.460097e-01
4.267887e-01
4.343808e-01
4.150635e-01
4.267887e-01
4.044150e-01
4.150635e-01
3.926350e-01
4.343808e-01
4.150635e-01
4.209827e-01
4.016275e-01
4.150635e-01
3.926350e-01
4.016275e-01
3.792378e-01
4.209827e-01
4.016275e-01
4.057916e-01
3.864628e-01
4.016275e-01
3.792378e-01
3.864628e-01
3.642252e-01
4.057916e-01
3.864628e-01
3.887901e-01
3.695577e-01
3.864628e-01
3.642252e-01
3.695577e-01
3.476049e-01
3.887901e-01
3.695577e-01
3.699873e-01
3.509225e-01
3.695577e-01
3.476049e-01
3.509225e-01
3.293806e-01
3.699873e-01
3.509225e-01
3.494878e-01
3.306401e-01
3.509225e-01
3.293806e-01
3.306401e-01
3.094751e-01
3.494878e-01
3.306401e-01
3.279495e-01
3.093835e-01
3.306401e-01
3.094751e-01
3.093835e-01
2.882148e-01
3.279495e-01
3.093835e-01
3.071391e-01
2.892029e-01
3.093835e-01
2.882148e-01
2.892029e-01
2.690081e-01
3.071391e-01
2.892029e-01
2.873585e-01
2.701996e-01
2.892029e-01
2.690081e-01
2.701996e-01
2.510966e-01
2.873585e-01
2.701996e-01
2.685143e-01
2.522531e-01
2.701996e-01
2.510966e-01
2.522531e-01
2.342817e-01
2.685143e-01
2.522531e-01
2.504474e-01
2.351680e-01
2.522531e-01
2.342817e-01
2.351680e-01
2.183598e-01
2.504474e-01
2.351680e-01
2.330225e-01
2.187784e-01
2.351680e-01
2.183598e-01
2.187784e-01
2.031537e-01
2.330225e-01
2.187784e-01
2.161211e-01
2.029409e-01
2.187784e-01
2.031537e-01
2.029409e-01
1.885081e-01
2.161211e-01
2.029409e-01
1.996425e-01
1.875354e-01
2.029409e-01
1.885081e-01
1.875354e-01
1.742909e-01
1.996425e-01
1.875354e-01
1.835022e-01
1.724628e-01
1.875354e-01
1.742909e-01
1.724628e-01
1.603924e-01
1.835022e-01
1.724628e-01
1.676299e-01
1.576424e-01
1.724628e-01
1.603924e-01
1.576424e-01
1.467242e-01
1.676299e-01
1.576424e-01
1.519678e-01
1.430092e-01
1.576424e-01
1.467242e-01
1.430092e-01
1.332158e-01
1.519678e-01
1.430092e-01
1.364685e-01
1.285121e-01
1.430092e-01
1.332158e-01
1.285121e-01
1.198130e-01
1.364685e-01
1.285121e-01
1.210937e-01
1.141110e-01
1.285121e-01
1.198130e-01
1.141110e-01
1.064746e-01
1.210937e-01
1.141110e-01
1.058131e-01
9.977534e-02
1.141110e-01
1.064746e-01
9.977534e-02
9.317082e-02
1.058131e-01
9.977534e-02
9.060221e-02
8.548248e-02
9.977534e-02
9.317082e-02
8.548248e-02
7.988062e-02
9.060221e-02
8.548248e-02
7.544230e-02
7.121596e-02
8.548248e-02
7.988062e-02
7.121596e-02
6.659043e-02
7.544230e-02
7.121596e-02
6.031872e-02
5.696441e-02
7.121596e-02
6.659043e-02
5.696441e-02
5.329241e-02
6.031872e-02
5.696441e-02
4.522033e-02
4.272041e-02
5.696441e-02
5.329241e-02
4.272041e-02
3.998322e-02
4.522033e-02
4.272041e-02
3.013860e-02
2.847960e-02
4.272041e-02
3.998322e-02
2.847960e-02
2.666287e-02
3.013860e-02
2.847960e-02
1.506694e-02
1.423973e-02
2.847960e-02
2.666287e-02
1.423973e-02
1.333380e-02
1.506694e-02
1.423973e-02
0.000000e+00
0.000000e+00
1.423973e-02
1.333380e-02
0.000000e+00
0.000000e+00
</DataArray>
<DataArray type="Float32" Name="V4" format="ascii">
8.500000e-01
9.250000e-01
8.500000e-01
9.250000e-01
9.250000e-01
1.000000e+00