<?xml version="1.0"?>
<VTKFile type="UnstructuredGrid" version="0.1" byte_order="LittleEndian" compressor="vtkZLibDataCompressor">
<UnstructuredGrid>
<Piece NumberOfPoints="504" NumberOfCells="126">
<Points>
<DataArray type="Float32" NumberOfComponents="3" format="ascii">
0.000000e+00 4.417100e-01 0.000000e+00
0.000000e+00 4.685334e-01 0.000000e+00
3.701936e-02 4.417181e-01 0.000000e+00
3.701392e-02 4.685357e-01 0.000000e+00
0.000000e+00 4.685334e-01 0.000000e+00
0.000000e+00 5.000782e-01 0.000000e+00
3.701392e-02 4.685357e-01 0.000000e+00
3.701126e-02 5.000782e-01 0.000000e+00
3.701936e-02 4.417181e-01 0.000000e+00
3.701392e-02 4.685357e-01 0.000000e+00
7.403772e-02 4.417325e-01 0.000000e+00
7.402677e-02 4.685435e-01 0.000000e+00
3.701392e-02 4.685357e-01 0.000000e+00
3.701126e-02 5.000782e-01 0.000000e+00
7.402677e-02 4.685435e-01 0.000000e+00
7.402134e-02 5.000782e-01 0.000000e+00
7.403772e-02 4.417325e-01 0.000000e+00
7.402677e-02 4.685435e-01 0.000000e+00
1.110536e-01 4.417565e-01 0.000000e+00
1.110372e-01 4.685565e-01 0.000000e+00
7.402677e-02 4.685435e-01 0.000000e+00
7.402134e-02 5.000782e-01 0.000000e+00
1.110372e-01 4.685565e-01 0.000000e+00
1.110291e-01 5.000782e-01 0.000000e+00
1.110536e-01 4.417565e-01 0.000000e+00
1.110372e-01 4.685565e-01 0.000000e+00
1.480660e-01 4.417901e-01 0.000000e+00
1.480441e-01 4.685747e-01 0.000000e+00
1.110372e-01 4.685565e-01 0.000000e+00
1.110291e-01 5.000782e-01 0.000000e+00
1.480441e-01 4.685747e-01 0.000000e+00
1.480333e-01 5.000782e-01 0.000000e+00
1.480660e-01 4.417901e-01 0.000000e+00
1.480441e-01 4.685747e-01 0.000000e+00
1.850735e-01 4.418333e-01 0.000000e+00
1.850463e-01 4.685981e-01 0.000000e+00
1.480441e-01 4.685747e-01 0.000000e+00
1.480333e-01 5.000782e-01 0.000000e+00
1.850463e-01 4.685981e-01 0.000000e+00
1.850329e-01 5.000782e-01 0.000000e+00
1.850735e-01 4.418333e-01 0.000000e+00
1.850463e-01 4.685981e-01 0.000000e+00
2.220749e-01 4.418860e-01 0.000000e+00
2.220425e-01 4.686266e-01 0.000000e+00
1.850463e-01 4.685981e-01 0.000000e+00
1.850329e-01 5.000782e-01 0.000000e+00
2.220425e-01 4.686266e-01 0.000000e+00
2.220265e-01 5.000782e-01 0.000000e+00
2.220749e-01 4.418860e-01 0.000000e+00
2.220425e-01 4.686266e-01 0.000000e+00
2.590691e-01 4.419481e-01 0.000000e+00
2.590315e-01 4.686603e-01 0.000000e+00
2.220425e-01 4.686266e-01 0.000000e+00
2.220265e-01 5.000782e-01 0.000000e+00
2.590315e-01 4.686603e-01 0.000000e+00
2.590130e-01 5.000782e-01 0.000000e+00
2.590691e-01 4.419481e-01 0.000000e+00
2.590315e-01 4.686603e-01 0.000000e+00
2.960547e-01 4.420198e-01 0.000000e+00
2.960120e-01 4.686991e-01 0.000000e+00
2.590315e-01 4.686603e-01 0.000000e+00
2.590130e-01 5.000782e-01 0.000000e+00
2.960120e-01 4.686991e-01 0.000000e+00
2.959912e-01 5.000782e-01 0.000000e+00
2.960547e-01 4.420198e-01 0.000000e+00
2.960120e-01 4.686991e-01 0.000000e+00
3.330305e-01 4.421008e-01 0.000000e+00
3.329829e-01 4.687429e-01 0.000000e+00
2.960120e-01 4.686991e-01 0.000000e+00
2.959912e-01 5.000782e-01 0.000000e+00
3.329829e-01 4.687429e-01 0.000000e+00
3.329598e-01 5.000782e-01 0.000000e+00
3.330305e-01 4.421008e-01 0.000000e+00
3.329829e-01 4.687429e-01 0.000000e+00
3.699952e-01 4.421911e-01 0.000000e+00
3.699428e-01 4.687919e-01 0.000000e+00
3.329829e-01 4.687429e-01 0.000000e+00
3.329598e-01 5.000782e-01 0.000000e+00
3.699428e-01 4.687919e-01 0.000000e+00
3.699176e-01 5.000782e-01 0.000000e+00
3.699952e-01 4.421911e-01 0.000000e+00
3.699428e-01 4.687919e-01 0.000000e+00
4.069474e-01 4.422907e-01 0.000000e+00
4.068905e-01 4.688458e-01 0.000000e+00
3.699428e-01 4.687919e-01 0.000000e+00
3.699176e-01 5.000782e-01 0.000000e+00
4.068905e-01 4.688458e-01 0.000000e+00
4.068633e-01 5.000782e-01 0.000000e+00
4.069474e-01 4.422907e-01 0.000000e+00
4.068905e-01 4.688458e-01 0.000000e+00
4.438857e-01 4.423995e-01 0.000000e+00
4.438245e-01 4.689048e-01 0.000000e+00
4.068905e-01 4.688458e-01 0.000000e+00
4.068633e-01 5.000782e-01 0.000000e+00
4.438245e-01 4.689048e-01 0.000000e+00
4.437956e-01 5.000782e-01 0.000000e+00
4.438857e-01 4.423995e-01 0.000000e+00
4.438245e-01 4.689048e-01 0.000000e+00
4.808089e-01 4.425174e-01 0.000000e+00
4.807435e-01 4.689687e-01 0.000000e+00
4.438245e-01 4.689048e-01 0.000000e+00
4.437956e-01 5.000782e-01 0.000000e+00
4.807435e-01 4.689687e-01 0.000000e+00
4.807131e-01 5.000782e-01 0.000000e+00
4.808089e-01 4.425174e-01 0.000000e+00
4.807435e-01 4.689687e-01 0.000000e+00
5.177153e-01 4.426443e-01 0.000000e+00
5.176462e-01 4.690375e-01 0.000000e+00
4.807435e-01 4.689687e-01 0.000000e+00
4.807131e-01 5.000782e-01 0.000000e+00
5.176462e-01 4.690375e-01 0.000000e+00
5.176146e-01 5.000782e-01 0.000000e+00
5.177153e-01 4.426443e-01 0.000000e+00
5.176462e-01 4.690375e-01 0.000000e+00
5.546035e-01 4.427801e-01 0.000000e+00
5.545311e-01 4.691111e-01 0.000000e+00
5.176462e-01 4.690375e-01 0.000000e+00
5.176146e-01 5.000782e-01 0.000000e+00
5.545311e-01 4.691111e-01 0.000000e+00
5.544985e-01 5.000782e-01 0.000000e+00
5.546035e-01 4.427801e-01 0.000000e+00
5.545311e-01 4.691111e-01 0.000000e+00
5.914720e-01 4.429248e-01 0.000000e+00
5.913966e-01 4.691896e-01 0.000000e+00
5.545311e-01 4.691111e-01 0.000000e+00
5.544985e-01 5.000782e-01 0.000000e+00
5.913966e-01 4.691896e-01 0.000000e+00
5.913637e-01 5.000782e-01 0.000000e+00
5.914720e-01 4.429248e-01 0.000000e+00
5.913966e-01 4.691896e-01 0.000000e+00
6.283192e-01 4.430783e-01 0.000000e+00
6.282414e-01 4.692729e-01 0.000000e+00
5.913966e-01 4.691896e-01 0.000000e+00
5.913637e-01 5.000782e-01 0.000000e+00
6.282414e-01 4.692729e-01 0.000000e+00
6.282085e-01 5.000782e-01 0.000000e+00
6.283192e-01 4.430783e-01 0.000000e+00
6.282414e-01 4.692729e-01 0.000000e+00
6.651433e-01 4.432403e-01 0.000000e+00
6.650639e-01 4.693609e-01 0.000000e+00
6.282414e-01 4.692729e-01 0.000000e+00
6.282085e-01 5.000782e-01 0.000000e+00
6.650639e-01 4.693609e-01 0.000000e+00
6.650317e-01 5.000782e-01 0.000000e+00
6.651433e-01 4.432403e-01 0.000000e+00
6.650639e-01 4.693609e-01 0.000000e+00
7.019427e-01 4.434109e-01 0.000000e+00
7.018624e-01 4.694537e-01 0.000000e+00
6.650639e-01 4.693609e-01 0.000000e+00
6.650317e-01 5.000782e-01 0.000000e+00
7.018624e-01 4.694537e-01 0.000000e+00
7.018316e-01 5.000782e-01 0.000000e+00
7.019427e-01 4.434109e-01 0.000000e+00
7.018624e-01 4.694537e-01 0.000000e+00
7.387154e-01 4.435899e-01 0.000000e+00
7.386353e-01 4.695511e-01 0.000000e+00
7.018624e-01 4.694537e-01 0.000000e+00
7.018316e-01 5.000782e-01 0.000000e+00
7.386353e-01 4.695511e-01 0.000000e+00
7.386070e-01 5.000782e-01 0.000000e+00
7.387154e-01 4.435899e-01 0.000000e+00
7.386353e-01 4.695511e-01 0.000000e+00
7.754597e-01 4.437772e-01 0.000000e+00
7.753810e-01 4.696531e-01 0.000000e+00
7.386353e-01 4.695511e-01 0.000000e+00
7.386070e-01 5.000782e-01 0.000000e+00
7.753810e-01 4.696531e-01 0.000000e+00
7.753563e-01 5.000782e-01 0.000000e+00
7.754597e-01 4.437772e-01 0.000000e+00
7.753810e-01 4.696531e-01 0.000000e+00
8.121733e-01 4.439727e-01 0.000000e+00
8.120976e-01 4.697598e-01 0.000000e+00
7.753810e-01 4.696531e-01 0.000000e+00
7.753563e-01 5.000782e-01 0.000000e+00
8.120976e-01 4.697598e-01 0.000000e+00
8.120782e-01 5.000782e-01 0.000000e+00
8.121733e-01 4.439727e-01 0.000000e+00
8.120976e-01 4.697598e-01 0.000000e+00
8.488542e-01 4.441763e-01 0.000000e+00
8.487835e-01 4.698711e-01 0.000000e+00
8.120976e-01 4.697598e-01 0.000000e+00
8.120782e-01 5.000782e-01 0.000000e+00
8.487835e-01 4.698711e-01 0.000000e+00
8.487713e-01 5.000782e-01 0.000000e+00
8.488542e-01 4.441763e-01 0.000000e+00
8.487835e-01 4.698711e-01 0.000000e+00
8.854999e-01 4.443879e-01 0.000000e+00
8.854367e-01 4.699870e-01 0.000000e+00
8.487835e-01 4.698711e-01 0.000000e+00
8.487713e-01 5.000782e-01 0.000000e+00
8.854367e-01 4.699870e-01 0.000000e+00
8.854342e-01 5.000782e-01 0.000000e+00
8.854999e-01 4.443879e-01 0.000000e+00
8.854367e-01 4.699870e-01 0.000000e+00
9.221080e-01 4.446073e-01 0.000000e+00
9.220555e-01 4.701076e-01 0.000000e+00
8.854367e-01 4.699870e-01 0.000000e+00
8.854342e-01 5.000782e-01 0.000000e+00
9.220555e-01 4.701076e-01 0.000000e+00
9.220657e-01 5.000782e-01 0.000000e+00
9.221080e-01 4.446073e-01 0.000000e+00
9.220555e-01 4.701076e-01 0.000000e+00
9.586756e-01 4.448346e-01 0.000000e+00
9.586380e-01 4.702329e-01 0.000000e+00
9.220555e-01 4.701076e-01 0.000000e+00
9.220657e-01 5.000782e-01 0.000000e+00
9.586380e-01 4.702329e-01 0.000000e+00
9.586650e-01 5.000782e-01 0.000000e+00
9.586756e-01 4.448346e-01 0.000000e+00
9.586380e-01 4.702329e-01 0.000000e+00
9.951998e-01 4.450696e-01 0.000000e+00
9.951821e-01 4.703631e-01 0.000000e+00
9.586380e-01 4.702329e-01 0.000000e+00
9.586650e-01 5.000782e-01 0.000000e+00
9.951821e-01 4.703631e-01 0.000000e+00
9.952311e-01 5.000782e-01 0.000000e+00
9.951998e-01 4.450696e-01 0.000000e+00
9.951821e-01 4.703631e-01 0.000000e+00
1.031677e+00 4.453123e-01 0.000000e+00
1.031686e+00 4.704983e-01 0.000000e+00
9.951821e-01 4.703631e-01 0.000000e+00
9.952311e-01 5.000782e-01 0.000000e+00
1.031686e+00 4.704983e-01 0.000000e+00
1.031764e+00 5.000782e-01 0.000000e+00
1.031677e+00 4.453123e-01 0.000000e+00
1.031686e+00 4.704983e-01 0.000000e+00
1.068104e+00 4.455626e-01 0.000000e+00
1.068148e+00 4.706387e-01 0.000000e+00
1.031686e+00 4.704983e-01 0.000000e+00
1.031764e+00 5.000782e-01 0.000000e+00
1.068148e+00 4.706387e-01 0.000000e+00
1.068263e+00 5.000782e-01 0.000000e+00
1.068104e+00 4.455626e-01 0.000000e+00
1.068148e+00 4.706387e-01 0.000000e+00
1.104475e+00 4.458206e-01 0.000000e+00
1.104566e+00 4.707848e-01 0.000000e+00
1.068148e+00 4.706387e-01 0.000000e+00
1.068263e+00 5.000782e-01 0.000000e+00
1.104566e+00 4.707848e-01 0.000000e+00
1.104728e+00 5.000782e-01 0.000000e+00
1.104475e+00 4.458206e-01 0.000000e+00
1.104566e+00 4.707848e-01 0.000000e+00
1.140786e+00 4.460864e-01 0.000000e+00
1.140938e+00 4.709368e-01 0.000000e+00
1.104566e+00 4.707848e-01 0.000000e+00
1.104728e+00 5.000782e-01 0.000000e+00
1.140938e+00 4.709368e-01 0.000000e+00
1.141163e+00 5.000782e-01 0.000000e+00
1.140786e+00 4.460864e-01 0.000000e+00
[...]
<PointData>
<DataArray type="Float32" Name="V1" format="ascii">
1.511872e+02
5.731661e+01
1.512441e+02
5.737352e+01
5.969333e+01
1.343901e+01
5.971736e+01
1.346304e+01
1.512664e+02
5.733928e+01
1.514073e+02
5.748016e+01
5.973773e+01
1.345371e+01
5.980351e+01
1.351949e+01
1.514618e+02
5.741910e+01
1.516939e+02
5.765123e+01
5.984233e+01
1.349867e+01
5.995502e+01
1.361136e+01
1.517781e+02
5.756168e+01
1.521024e+02
5.788598e+01
6.001160e+01
1.357833e+01
6.017100e+01
1.373773e+01
1.522159e+02
5.776735e+01
1.526335e+02
5.818494e+01
6.024578e+01
1.369270e+01
6.045211e+01
1.389903e+01
1.527766e+02
5.803673e+01
1.532887e+02
5.854882e+01
6.054542e+01
1.384203e+01
6.079915e+01
1.409576e+01
1.534614e+02
5.837058e+01
1.540694e+02
5.897855e+01
6.091128e+01
1.402670e+01
6.121305e+01
1.432847e+01
1.542722e+02
5.876979e+01
1.549777e+02
5.947527e+01
6.134433e+01
1.424723e+01
6.169494e+01
1.459784e+01
1.552110e+02
5.923546e+01
1.560158e+02
6.004028e+01
6.184572e+01
1.450424e+01
6.224612e+01
1.490464e+01
1.562801e+02
5.976884e+01
1.571864e+02
6.067512e+01
6.241679e+01
1.479845e+01
6.286809e+01
1.524976e+01
1.574823e+02
6.037140e+01
1.584924e+02
6.138152e+01
6.305910e+01
1.513074e+01
6.356258e+01
1.563422e+01
1.588206e+02
6.104478e+01
1.599372e+02
6.216141e+01
6.377440e+01
1.550206e+01
6.433152e+01
1.605918e+01
1.602984e+02
6.179087e+01
1.615245e+02
6.301698e+01
6.456469e+01
1.591355e+01
6.517708e+01
1.652593e+01
1.619196e+02
6.261177e+01
1.632585e+02
6.395064e+01
6.543219e+01
1.636645e+01
6.610166e+01
1.703592e+01
1.636882e+02
6.350980e+01
1.651435e+02
6.496506e+01
6.637938e+01
1.686218e+01
6.710797e+01
1.759077e+01
1.656090e+02
6.448758e+01
1.671845e+02
6.606317e+01
6.740899e+01
1.740233e+01
6.819898e+01
1.819232e+01
1.676867e+02
6.554799e+01
1.693869e+02
6.724821e+01
6.852406e+01
1.798868e+01
6.937798e+01
1.884260e+01
1.699267e+02
6.669419e+01
1.717563e+02
6.852372e+01
6.972793e+01
1.862322e+01
7.064860e+01
1.954388e+01
1.723349e+02
6.792969e+01
1.742988e+02
6.989359e+01
7.102430e+01
1.930820e+01
7.201483e+01
2.029873e+01
1.749174e+02
6.925835e+01
1.770211e+02
7.136207e+01
7.241722e+01
2.004612e+01
7.348112e+01
2.111001e+01
1.776807e+02
7.068443e+01
1.799300e+02
7.293379e+01
7.391116e+01
2.083982e+01
7.505233e+01
2.198099e+01
1.806316e+02
7.221260e+01
1.830328e+02
7.461384e+01
7.551104e+01
2.169253e+01
7.673386e+01
2.291535e+01
1.837772e+02
7.384803e+01
1.863370e+02
7.640776e+01
7.722228e+01
2.260789e+01
7.853172e+01
2.391732e+01
1.871250e+02
7.559645e+01
1.898501e+02
7.832161e+01
7.905089e+01
2.359011e+01
8.045255e+01
2.499177e+01
1.906821e+02
7.746418e+01
1.935799e+02
8.036205e+01
8.100351e+01
2.464402e+01
8.250381e+01
2.614432e+01
1.944558e+02
7.945828e+01
1.975338e+02
8.253635e+01
8.308751e+01
2.577527e+01
8.469384e+01
2.738160e+01
1.984528e+02
8.158662e+01
2.017187e+02
8.485248e+01
8.531114e+01
2.699048e+01
8.703206e+01
2.871140e+01
2.026792e+02
8.385804e+01
2.061404e+02
8.731923e+01
8.768362e+01
2.829749e+01
8.952919e+01
3.014306e+01
2.071394e+02
8.628255e+01
2.108031e+02
8.994626e+01
9.021538e+01
2.970573e+01
9.219748e+01
3.168784e+01
2.118359e+02
8.887152e+01
2.157086e+02
9.274428e+01
9.291822e+01
3.122660e+01
9.505112e+01
3.335951e+01
2.167679e+02
9.163803e+01
2.208550e+02
9.572511e+01
9.580566e+01
3.287408e+01
9.810663e+01
3.517505e+01
2.219303e+02
9.459721e+01
2.262350e+02
9.890192e+01
9.889327e+01
3.466548e+01
1.013835e+02
3.715571e+01
2.273112e+02
9.776676e+01
2.318338e+02
1.022894e+02
1.021991e+02
3.662252e+01
1.049050e+02
3.932835e+01
2.328899e+02
1.011675e+02
2.376261e+02
1.059037e+02
1.057444e+02
3.877281e+01
1.086989e+02
4.172733e+01
2.386332e+02
1.048243e+02
2.435720e+02
1.097631e+02
1.095540e+02
4.115183e+01
1.127994e+02
4.439725e+01
2.444911e+02
1.087667e+02
2.496118e+02
1.138874e+02
1.136571e+02
4.380598e+01
1.172479e+02
4.739674e+01
2.503911e+02
1.130297e+02
2.556592e+02
1.182978e+02
1.180880e+02
4.679698e+01
1.220952e+02
5.080427e+01
2.562309e+02
1.176549e+02
2.615926e+02
1.230166e+02
1.228848e+02
5.020890e+01
1.274030e+02
5.472717e+01
2.618693e+02
1.226908e+02
2.672453e+02
1.280669e+02
1.280864e+02
5.416015e+01
1.332434e+02
5.931717e+01
2.671129e+02
1.281966e+02
2.723938e+02
1.334774e+02
1.337192e+02
5.882641e+01
1.396940e+02
6.480123e+01
2.716912e+02
1.342578e+02
2.767472e+02
1.393138e+02
1.397568e+02
6.449241e+01
1.468222e+02
7.155783e+01
2.751861e+02
1.410657e+02
2.799516e+02
1.458311e+02
1.460085e+02
7.170196e+01
1.546638e+02
8.035726e+01
2.767482e+02
1.492952e+02
2.816564e+02
1.542034e+02
1.518159e+02
8.195996e+01
1.632031e+02
9.334708e+01
2.758269e+02
1.608137e+02
2.819254e+02
1.669122e+02
1.578785e+02
1.007476e+02
1.706151e+02
1.134841e+02
2.778103e+02
1.708296e+02
2.834999e+02
1.765192e+02
1.681190e+02
1.132516e+02
1.762270e+02
1.213596e+02
2.823252e+02
1.776033e+02
2.891692e+02
1.844473e+02
1.759890e+02
1.214340e+02
1.835476e+02
1.289926e+02
2.892313e+02
1.842726e+02
2.968843e+02
1.919255e+02
1.839090e+02
1.287114e+02
1.910044e+02
1.358068e+02
2.976914e+02
1.910096e+02
3.058695e+02
1.991876e+02
1.917638e+02
1.352759e+02
1.984269e+02
1.419391e+02
3.071356e+02
1.977889e+02
3.155854e+02
2.062387e+02
1.994498e+02
1.412368e+02
2.056960e+02
1.474830e+02
3.171384e+02
2.045269e+02
3.256429e+02
2.130314e+02
2.068927e+02
1.466676e+02
2.127294e+02
1.525043e+02
3.273653e+02
2.111303e+02
3.357420e+02
2.195071e+02
2.140280e+02
1.516232e+02
2.194569e+02
1.570521e+02
3.375469e+02
2.175124e+02
3.456445e+02
2.256100e+02
2.207994e+02
1.561444e+02
2.258183e+02
1.611633e+02
3.474644e+02
2.235977e+02
3.551584e+02
2.312917e+02
2.271579e+02
1.602605e+02
2.317626e+02
1.648652e+02
3.569394e+02
2.293228e+02
3.641283e+02
2.365116e+02
2.330620e+02
1.639922e+02
2.372472e+02
1.681775e+02
3.658268e+02
2.346351e+02
3.724283e+02
2.412366e+02
2.384768e+02
1.673540e+02
2.422372e+02
1.711143e+02
3.740091e+02
2.394918e+02
3.799573e+02
2.454400e+02
2.433739e+02
1.703554e+02
2.467041e+02
1.736856e+02
3.813918e+02
2.438582e+02
3.866342e+02
2.491006e+02
2.477297e+02
1.730028e+02
2.506251e+02
1.758982e+02
3.878998e+02
2.477065e+02
3.923951e+02
2.522018e+02
2.515255e+02
1.753003e+02
2.539820e+02
1.777568e+02
3.934739e+02
2.510147e+02
3.971903e+02
2.547311e+02
2.547464e+02
1.772504e+02
2.567607e+02
1.792647e+02
3.980684e+02
2.537656e+02
4.009817e+02
2.566789e+02
2.573809e+02
1.788545e+02
2.589503e+02
1.804239e+02
4.016488e+02
2.559460e+02
4.037414e+02
2.580387e+02
2.594202e+02
1.801136e+02
2.605426e+02
1.812360e+02
4.041901e+02
2.575460e+02
4.054503e+02
2.588062e+02
2.608582e+02
1.810279e+02
2.615322e+02
1.817019e+02
4.056757e+02
2.585587e+02
4.060965e+02
2.589795e+02
2.616906e+02
1.815974e+02
2.619153e+02
1.818222e+02
</DataArray>
<DataArray type="Float32" Name="V2" format="ascii">
4.417100e-01
4.685334e-01
4.425037e-01
4.693128e-01
4.685334e-01
5.000782e-01
4.693128e-01
5.008454e-01
4.425037e-01
4.693128e-01
4.448739e-01
4.716510e-01
4.693128e-01
5.008454e-01
4.716510e-01
5.031462e-01
4.448739e-01
4.716510e-01
4.488203e-01
4.755441e-01
4.716510e-01
5.031462e-01
4.755441e-01
5.069771e-01
4.488203e-01
4.755441e-01
4.543374e-01
4.809867e-01
4.755441e-01
5.069771e-01
4.809867e-01
5.123325e-01
4.543374e-01
4.809867e-01
4.614170e-01
4.879707e-01
4.809867e-01
5.123325e-01
4.879707e-01
5.192048e-01
4.614170e-01
4.879707e-01
4.700490e-01
4.964861e-01
4.879707e-01
5.192048e-01
4.964861e-01
5.275840e-01
4.700490e-01
4.964861e-01
4.802208e-01
5.065206e-01
4.964861e-01
5.275840e-01
5.065206e-01
5.374580e-01
4.802208e-01
5.065206e-01
4.919177e-01
5.180596e-01
5.065206e-01
5.374580e-01
5.180596e-01
5.488124e-01
4.919177e-01
5.180596e-01
5.051226e-01
5.310862e-01
5.180596e-01
5.488124e-01
5.310862e-01
5.616307e-01
5.051226e-01
5.310862e-01
5.198164e-01
5.455817e-01
5.310862e-01
5.616307e-01
5.455817e-01
5.758943e-01
5.198164e-01
5.455817e-01
5.359776e-01
5.615248e-01
5.455817e-01
5.758943e-01
5.615248e-01
5.915824e-01
5.359776e-01
5.615248e-01
5.535825e-01
5.788922e-01
5.615248e-01
5.915824e-01
5.788922e-01
6.086721e-01
5.535825e-01
5.788922e-01
5.726055e-01
5.976586e-01
5.788922e-01
6.086721e-01
5.976586e-01
6.271385e-01
5.726055e-01
5.976586e-01
5.930186e-01
6.177965e-01
5.976586e-01
6.271385e-01
6.177965e-01
6.469544e-01
5.930186e-01
6.177965e-01
6.147918e-01
6.392762e-01
6.177965e-01
6.469544e-01
6.392762e-01
6.680907e-01
6.147918e-01
6.392762e-01
6.378930e-01
6.620661e-01
6.392762e-01
6.680907e-01
6.620661e-01
6.905163e-01
6.378930e-01
6.620661e-01
6.622880e-01
6.861326e-01
6.620661e-01
6.905163e-01
6.861326e-01
7.141982e-01
6.622880e-01
6.861326e-01
6.879406e-01
7.114400e-01
6.861326e-01
7.141982e-01
7.114400e-01
7.391013e-01
6.879406e-01
7.114400e-01
7.148126e-01
7.379507e-01
7.114400e-01
7.391013e-01
7.379507e-01
7.651885e-01
7.148126e-01
7.379507e-01
7.428638e-01
7.656252e-01
7.379507e-01
7.651885e-01
7.656252e-01
7.924212e-01
7.428638e-01
7.656252e-01
7.720522e-01
7.944220e-01
7.656252e-01
7.924212e-01
7.944220e-01
8.207586e-01
7.720522e-01
7.944220e-01
8.023336e-01
8.242980e-01
7.944220e-01
8.207586e-01
8.242980e-01
8.501583e-01
8.023336e-01
8.242980e-01
8.336623e-01
8.552082e-01
8.242980e-01
8.501583e-01
8.552082e-01
8.805763e-01
8.336623e-01
8.552082e-01
8.659904e-01
8.871057e-01
8.552082e-01
8.805763e-01
8.871057e-01
9.119668e-01
8.659904e-01
8.871057e-01
8.992683e-01
9.199423e-01
8.871057e-01
9.119668e-01
9.199423e-01
9.442825e-01
8.992683e-01
9.199423e-01
9.334447e-01
9.536677e-01
9.199423e-01
9.442825e-01
9.536677e-01
9.774747e-01
9.334447e-01
9.536677e-01
9.684663e-01
9.882306e-01
9.536677e-01
9.774747e-01
9.882306e-01
1.011493e+00
9.684663e-01
9.882306e-01
1.004278e+00
1.023578e+00
9.882306e-01
1.011493e+00
1.023578e+00
1.046287e+00
1.004278e+00
1.023578e+00
1.040823e+00
1.059654e+00
1.023578e+00
1.046287e+00
1.059654e+00
1.081803e+00
1.040823e+00
1.059654e+00
1.078043e+00
1.096405e+00
1.059654e+00
1.081803e+00
1.096405e+00
1.117989e+00
1.078043e+00
1.096405e+00
1.115877e+00
1.133773e+00
1.096405e+00
1.117989e+00
1.133773e+00
1.154791e+00
1.115877e+00
1.133773e+00
1.154262e+00
1.171699e+00
1.133773e+00
1.154791e+00
1.171699e+00
1.192155e+00
1.154262e+00
1.171699e+00
1.193133e+00
1.210125e+00
1.171699e+00
1.192155e+00
1.210125e+00
1.230026e+00
1.193133e+00
1.210125e+00
1.232423e+00
1.248991e+00
1.210125e+00
1.230026e+00
1.248991e+00
1.268351e+00
1.232423e+00
1.248991e+00
1.272061e+00
1.288236e+00
1.248991e+00
1.268351e+00
1.288236e+00
1.307079e+00
1.272061e+00
1.288236e+00
1.311973e+00
1.327798e+00
1.288236e+00
1.307079e+00
1.327798e+00
1.346159e+00
1.311973e+00
1.327798e+00
1.352082e+00
1.367615e+00
1.327798e+00
1.346159e+00
1.367615e+00
1.385545e+00
1.352082e+00
1.367615e+00
1.392303e+00
1.407624e+00
1.367615e+00
1.385545e+00
1.407624e+00
1.425196e+00
1.392303e+00
1.407624e+00
1.432546e+00
1.447762e+00
1.407624e+00
1.425196e+00
1.447762e+00
1.465078e+00
1.432546e+00
1.447762e+00
1.472711e+00
1.487958e+00
1.447762e+00
1.465078e+00
1.487958e+00
1.505168e+00
1.472711e+00
1.487958e+00
1.512677e+00
1.528131e+00
1.487958e+00
1.505168e+00
1.528131e+00
1.545461e+00
1.512677e+00
1.528131e+00
1.552275e+00
1.568156e+00
1.528131e+00
1.545461e+00
1.568156e+00
1.585956e+00
1.552275e+00
1.568156e+00
1.591237e+00
1.607746e+00
1.568156e+00
1.585956e+00
1.607746e+00
1.626481e+00
1.591237e+00
1.607746e+00
1.629013e+00
1.645918e+00
1.607746e+00
1.626481e+00
1.645918e+00
1.664883e+00
1.629013e+00
1.645918e+00
1.664378e+00
1.681518e+00
1.645918e+00
1.664883e+00
1.681518e+00
1.700765e+00
1.664378e+00
1.681518e+00
1.697268e+00
1.714885e+00
1.681518e+00
1.700765e+00
1.714885e+00
1.734622e+00
1.697268e+00
1.714885e+00
1.727768e+00
1.745969e+00
1.714885e+00
1.734622e+00
1.745969e+00
1.766288e+00
1.727768e+00
1.745969e+00
1.755961e+00
1.774768e+00
1.745969e+00
1.766288e+00
1.774768e+00
1.795700e+00
1.755961e+00
1.774768e+00
1.781922e+00
1.801312e+00
1.774768e+00
1.795700e+00
1.801312e+00
1.822849e+00
1.781922e+00
1.801312e+00
1.805725e+00
1.825653e+00
1.801312e+00
1.822849e+00
1.825653e+00
1.847758e+00
1.805725e+00
1.825653e+00
1.827442e+00
1.847851e+00
1.825653e+00
1.847758e+00
1.847851e+00
1.870477e+00
1.827442e+00
1.847851e+00
1.847145e+00
1.867976e+00
1.847851e+00
1.870477e+00
1.867976e+00
1.891065e+00
1.847145e+00
1.867976e+00
1.864901e+00
1.886094e+00
1.867976e+00
1.891065e+00
1.886094e+00
1.909588e+00
1.864901e+00
1.886094e+00
1.880772e+00
1.902273e+00
1.886094e+00
1.909588e+00
1.902273e+00
1.926115e+00
1.880772e+00
1.902273e+00
1.894817e+00
1.916574e+00
1.902273e+00
1.926115e+00
1.916574e+00
1.940712e+00
1.894817e+00
1.916574e+00
1.907085e+00
1.929055e+00
1.916574e+00
1.940712e+00
1.929055e+00
1.953441e+00
1.907085e+00
1.929055e+00
1.917625e+00
1.939768e+00
1.929055e+00
1.953441e+00
1.939768e+00
1.964357e+00
1.917625e+00
1.939768e+00
1.926476e+00
1.948756e+00
1.939768e+00
1.964357e+00
1.948756e+00
1.973509e+00
1.926476e+00
1.948756e+00
1.933671e+00
1.956059e+00
1.948756e+00
1.973509e+00
1.956059e+00
1.980940e+00
1.933671e+00
1.956059e+00
1.939239e+00
1.961706e+00
1.956059e+00
1.980940e+00
1.961706e+00
1.986684e+00
1.939239e+00
1.961706e+00
1.943201e+00
1.965723e+00
1.961706e+00
1.986684e+00
1.965723e+00
1.990767e+00
1.943201e+00
1.965723e+00
1.945572e+00
1.968126e+00
1.965723e+00
1.990767e+00
1.968126e+00
1.993210e+00
1.945572e+00
1.968126e+00
1.946361e+00
1.968926e+00
1.968126e+00
1.993210e+00
1.968926e+00
1.994023e+00
</DataArray>
<DataArray type="Float32" Name="V3" format="ascii">
0.000000e+00
0.000000e+00
2.599552e-02
2.532150e-02
0.000000e+00
0.000000e+00
2.532150e-02
2.453246e-02
2.599552e-02
2.532150e-02
5.192713e-02
5.057978e-02
2.532150e-02
2.453246e-02
5.057978e-02
4.900249e-02
5.192713e-02
5.057978e-02
7.773061e-02
7.571148e-02
5.057978e-02
4.900249e-02
7.571148e-02
7.334775e-02
7.773061e-02
7.571148e-02
1.033421e-01
1.006535e-01
7.571148e-02
7.334775e-02
1.006535e-01
9.750602e-02
1.033421e-01
1.006535e-01
1.286980e-01
1.253430e-01
1.006535e-01
9.750602e-02
1.253430e-01
1.214153e-01
1.286980e-01
1.253430e-01
1.537348e-01
1.497173e-01
1.253430e-01
1.214153e-01
1.497173e-01
1.450139e-01
1.537348e-01
1.497173e-01
1.783898e-01
1.737142e-01
1.497173e-01
1.450139e-01
1.737142e-01
1.682404e-01
1.783898e-01
1.737142e-01
2.026002e-01
1.972719e-01
1.737142e-01
1.682404e-01
1.972719e-01
1.910339e-01
2.026002e-01
1.972719e-01
2.263041e-01
2.203292e-01
1.972719e-01
1.910339e-01
2.203292e-01
2.133340e-01
2.263041e-01
2.203292e-01
2.494400e-01
2.428253e-01
2.203292e-01
2.133340e-01
2.428253e-01
2.350808e-01
2.494400e-01
2.428253e-01
2.719472e-01
2.647002e-01
2.428253e-01
2.350808e-01
2.647002e-01
2.562151e-01
2.719472e-01
2.647002e-01
2.937656e-01
2.858945e-01
2.647002e-01
2.562151e-01
2.858945e-01
2.766784e-01
2.937656e-01
2.858945e-01
3.148360e-01
3.063497e-01
2.858945e-01
2.766784e-01
3.063497e-01
2.964129e-01
3.148360e-01
3.063497e-01
3.351000e-01
3.260080e-01
3.063497e-01
2.964129e-01
3.260080e-01
3.153618e-01
3.351000e-01
3.260080e-01
3.545001e-01
3.448129e-01
3.260080e-01
3.153618e-01
3.448129e-01
3.334691e-01
3.545001e-01
3.448129e-01
3.729800e-01
3.627084e-01
3.448129e-01
3.334691e-01
3.627084e-01
3.506798e-01
3.729800e-01
3.627084e-01
3.904842e-01
3.796398e-01
3.627084e-01
3.506798e-01
3.796398e-01
3.669400e-01
3.904842e-01
3.796398e-01
4.069586e-01
3.955538e-01
3.796398e-01
3.669400e-01
3.955538e-01
3.821970e-01
4.069586e-01
3.955538e-01
4.223502e-01
4.103978e-01
3.955538e-01
3.821970e-01
4.103978e-01
3.963992e-01
4.223502e-01
4.103978e-01
4.366072e-01
4.241208e-01
4.103978e-01
3.963992e-01
4.241208e-01
4.094962e-01
4.366072e-01
4.241208e-01
4.496792e-01
4.366730e-01
4.241208e-01
4.094962e-01
4.366730e-01
4.214392e-01
4.496792e-01
4.366730e-01
4.615171e-01
4.480062e-01
4.366730e-01
4.214392e-01
4.480062e-01
4.321806e-01
4.615171e-01
4.480062e-01
4.720733e-01
4.580733e-01
4.480062e-01
4.321806e-01
4.580733e-01
4.416743e-01
4.720733e-01
4.580733e-01
4.813018e-01
4.668291e-01
4.580733e-01
4.416743e-01
4.668291e-01
4.498760e-01
4.813018e-01
4.668291e-01
4.891578e-01
4.742296e-01
4.668291e-01
4.498760e-01
4.742296e-01
4.567428e-01
4.891578e-01
4.742296e-01
4.955984e-01
4.802328e-01
4.742296e-01
4.567428e-01
4.802328e-01
4.622336e-01
4.955984e-01
4.802328e-01
5.005822e-01
4.847981e-01
4.802328e-01
4.622336e-01
4.847981e-01
4.663094e-01
5.005822e-01
4.847981e-01
5.040693e-01
4.878870e-01
4.847981e-01
4.663094e-01
4.878870e-01
4.689328e-01
5.040693e-01
4.878870e-01
5.060215e-01
4.894623e-01
4.878870e-01
4.689328e-01
4.894623e-01
4.700686e-01
5.060215e-01
4.894623e-01
5.064023e-01
4.894891e-01
4.894623e-01
4.700686e-01
4.894891e-01
4.696837e-01
5.064023e-01
4.894891e-01
5.051769e-01
4.879342e-01
4.894891e-01
4.696837e-01
4.879342e-01
4.677475e-01
5.051769e-01
4.879342e-01
5.023118e-01
4.847663e-01
4.879342e-01
4.677475e-01
4.847663e-01
4.642316e-01
5.023118e-01
4.847663e-01
4.977753e-01
4.799560e-01
4.847663e-01
4.642316e-01
4.799560e-01
4.591104e-01
4.977753e-01
4.799560e-01
4.915372e-01
4.734761e-01
4.799560e-01
4.591104e-01
4.734761e-01
4.523611e-01
4.915372e-01
4.734761e-01
4.835685e-01
4.653011e-01
4.734761e-01
4.523611e-01
4.653011e-01
4.439638e-01
4.835685e-01
4.653011e-01
4.738416e-01
4.554075e-01
4.653011e-01
4.439638e-01
4.554075e-01
4.339021e-01
4.738416e-01
4.554075e-01
4.623301e-01
4.437736e-01
4.554075e-01
4.339021e-01
4.437736e-01
4.221635e-01
4.623301e-01
4.437736e-01
4.490088e-01
4.303797e-01
4.437736e-01
4.221635e-01
4.303797e-01
4.087394e-01
4.490088e-01
4.303797e-01
4.338535e-01
4.152073e-01
4.303797e-01
4.087394e-01
4.152073e-01
3.936265e-01
4.338535e-01
4.152073e-01
4.168424e-01
3.982406e-01
4.152073e-01
3.936265e-01
3.982406e-01
3.768279e-01
4.168424e-01
3.982406e-01
3.979601e-01
3.794696e-01
3.982406e-01
3.768279e-01
3.794696e-01
3.583535e-01
3.979601e-01
3.794696e-01
3.772172e-01
3.589067e-01
3.794696e-01
3.583535e-01
3.589067e-01
3.382113e-01
3.772172e-01
3.589067e-01
3.547219e-01
3.366395e-01
3.589067e-01
3.382113e-01
3.366395e-01
3.163132e-01
3.547219e-01
3.366395e-01
3.313281e-01
3.135652e-01
3.366395e-01
3.163132e-01
3.135652e-01
2.932944e-01
3.313281e-01
3.135652e-01
3.090164e-01
2.919169e-01
3.135652e-01
2.932944e-01
2.919169e-01
2.726478e-01
3.090164e-01
2.919169e-01
2.879078e-01
2.715993e-01
2.919169e-01
2.726478e-01
2.715993e-01
2.534072e-01
2.879078e-01
2.715993e-01
2.678345e-01
2.524247e-01
2.715993e-01
2.534072e-01
2.524247e-01
2.353499e-01
2.678345e-01
2.524247e-01
2.486219e-01
2.341881e-01
2.524247e-01
2.353499e-01
2.341881e-01
2.182626e-01
2.486219e-01
2.341881e-01
2.301184e-01
2.167099e-01
2.341881e-01
2.182626e-01
2.167099e-01
2.019549e-01
2.301184e-01
2.167099e-01
2.121931e-01
1.998364e-01
2.167099e-01
2.019549e-01
1.998364e-01
1.862609e-01
2.121931e-01
1.998364e-01
1.947353e-01
1.834387e-01
1.998364e-01
1.862609e-01
1.834387e-01
1.710399e-01
1.947353e-01
1.834387e-01
1.776524e-01
1.674107e-01
1.834387e-01
1.710399e-01
1.674107e-01
1.561757e-01
1.776524e-01
1.674107e-01
1.608676e-01
1.516660e-01
1.674107e-01
1.561757e-01
1.516660e-01
1.415743e-01
1.608676e-01
1.516660e-01
1.443177e-01
1.361351e-01
1.516660e-01
1.415743e-01
1.361351e-01
1.271612e-01
1.443177e-01
1.361351e-01
1.279513e-01
1.207628e-01
1.361351e-01
1.271612e-01
1.207628e-01
1.128788e-01
1.279513e-01
1.207628e-01
1.117264e-01
1.055063e-01
1.207628e-01
1.128788e-01
1.055063e-01
9.868325e-02
1.117264e-01
1.055063e-01
9.560952e-02
9.033229e-02
1.055063e-01
9.868325e-02
9.033229e-02
8.454242e-02
9.560952e-02
9.033229e-02
7.957385e-02
7.521579e-02
9.033229e-02
8.454242e-02
7.521579e-02
7.043345e-02
7.957385e-02
7.521579e-02
6.359806e-02
6.013824e-02
7.521579e-02
7.043345e-02
6.013824e-02
5.634088e-02
6.359806e-02
6.013824e-02
4.766521e-02
4.508617e-02
6.013824e-02
5.634088e-02
4.508617e-02
4.225509e-02
4.766521e-02
4.508617e-02
3.176173e-02
3.005001e-02
4.508617e-02
4.225509e-02
3.005001e-02
2.817078e-02
3.176173e-02
3.005001e-02
1.587650e-02
1.502295e-02
3.005001e-02
2.817078e-02
1.502295e-02
1.408581e-02
1.587650e-02
1.502295e-02
0.000000e+00
0.000000e+00
1.502295e-02
1.408581e-02
0.000000e+00
0.000000e+00
</DataArray>
<DataArray type="Float32" Name="V4" format="ascii">
8.500000e-01
9.250000e-01
8.500000e-01
9.250000e-01
9.250000e-01
1.000000e+00