<?xml version="1.0"?>
<VTKFile type="UnstructuredGrid" version="0.1" byte_order="LittleEndian" compressor="vtkZLibDataCompressor">
<UnstructuredGrid>
<Piece NumberOfPoints="504" NumberOfCells="126">
<Points>
<DataArray type="Float32" NumberOfComponents="3" format="ascii">
0.000000e+00 5.220499e-01 0.000000e+00
0.000000e+00 5.578566e-01 0.000000e+00
3.204429e-02 5.220586e-01 0.000000e+00
3.202830e-02 5.578604e-01 0.000000e+00
0.000000e+00 5.578566e-01 0.000000e+00
0.000000e+00 6.000000e-01 0.000000e+00
3.202830e-02 5.578604e-01 0.000000e+00
3.201870e-02 6.000000e-01 0.000000e+00
3.204429e-02 5.220586e-01 0.000000e+00
3.202830e-02 5.578604e-01 0.000000e+00
6.408788e-02 5.220790e-01 0.000000e+00
6.405583e-02 5.578715e-01 0.000000e+00
3.202830e-02 5.578604e-01 0.000000e+00
3.201870e-02 6.000000e-01 0.000000e+00
6.405583e-02 5.578715e-01 0.000000e+00
6.403660e-02 6.000000e-01 0.000000e+00
6.408788e-02 5.220790e-01 0.000000e+00
6.405583e-02 5.578715e-01 0.000000e+00
9.612975e-02 5.221129e-01 0.000000e+00
9.608177e-02 5.578899e-01 0.000000e+00
6.405583e-02 5.578715e-01 0.000000e+00
6.403660e-02 6.000000e-01 0.000000e+00
9.608177e-02 5.578899e-01 0.000000e+00
9.605298e-02 6.000000e-01 0.000000e+00
9.612975e-02 5.221129e-01 0.000000e+00
9.608177e-02 5.578899e-01 0.000000e+00
1.281691e-01 5.221603e-01 0.000000e+00
1.281053e-01 5.579156e-01 0.000000e+00
9.608177e-02 5.578899e-01 0.000000e+00
9.605298e-02 6.000000e-01 0.000000e+00
1.281053e-01 5.579156e-01 0.000000e+00
1.280670e-01 6.000000e-01 0.000000e+00
1.281691e-01 5.221603e-01 0.000000e+00
1.281053e-01 5.579156e-01 0.000000e+00
1.602050e-01 5.222212e-01 0.000000e+00
1.601256e-01 5.579487e-01 0.000000e+00
1.281053e-01 5.579156e-01 0.000000e+00
1.280670e-01 6.000000e-01 0.000000e+00
1.601256e-01 5.579487e-01 0.000000e+00
1.600780e-01 6.000000e-01 0.000000e+00
1.602050e-01 5.222212e-01 0.000000e+00
1.601256e-01 5.579487e-01 0.000000e+00
1.922367e-01 5.222956e-01 0.000000e+00
1.921419e-01 5.579891e-01 0.000000e+00
1.601256e-01 5.579487e-01 0.000000e+00
1.600780e-01 6.000000e-01 0.000000e+00
1.921419e-01 5.579891e-01 0.000000e+00
1.920851e-01 6.000000e-01 0.000000e+00
1.922367e-01 5.222956e-01 0.000000e+00
1.921419e-01 5.579891e-01 0.000000e+00
2.242632e-01 5.223834e-01 0.000000e+00
2.241532e-01 5.580368e-01 0.000000e+00
1.921419e-01 5.579891e-01 0.000000e+00
1.920851e-01 6.000000e-01 0.000000e+00
2.241532e-01 5.580368e-01 0.000000e+00
2.240876e-01 6.000000e-01 0.000000e+00
2.242632e-01 5.223834e-01 0.000000e+00
2.241532e-01 5.580368e-01 0.000000e+00
2.562835e-01 5.224844e-01 0.000000e+00
2.561589e-01 5.580918e-01 0.000000e+00
2.241532e-01 5.580368e-01 0.000000e+00
2.240876e-01 6.000000e-01 0.000000e+00
2.561589e-01 5.580918e-01 0.000000e+00
2.560845e-01 6.000000e-01 0.000000e+00
2.562835e-01 5.224844e-01 0.000000e+00
2.561589e-01 5.580918e-01 0.000000e+00
2.882968e-01 5.225987e-01 0.000000e+00
2.881579e-01 5.581540e-01 0.000000e+00
2.561589e-01 5.580918e-01 0.000000e+00
2.560845e-01 6.000000e-01 0.000000e+00
2.881579e-01 5.581540e-01 0.000000e+00
2.880752e-01 6.000000e-01 0.000000e+00
2.882968e-01 5.225987e-01 0.000000e+00
2.881579e-01 5.581540e-01 0.000000e+00
3.203021e-01 5.227261e-01 0.000000e+00
3.201494e-01 5.582234e-01 0.000000e+00
2.881579e-01 5.581540e-01 0.000000e+00
2.880752e-01 6.000000e-01 0.000000e+00
3.201494e-01 5.582234e-01 0.000000e+00
3.200589e-01 6.000000e-01 0.000000e+00
3.203021e-01 5.227261e-01 0.000000e+00
3.201494e-01 5.582234e-01 0.000000e+00
3.522982e-01 5.228666e-01 0.000000e+00
3.521324e-01 5.582999e-01 0.000000e+00
3.201494e-01 5.582234e-01 0.000000e+00
3.200589e-01 6.000000e-01 0.000000e+00
3.521324e-01 5.582999e-01 0.000000e+00
3.520346e-01 6.000000e-01 0.000000e+00
3.522982e-01 5.228666e-01 0.000000e+00
3.521324e-01 5.582999e-01 0.000000e+00
3.842841e-01 5.230200e-01 0.000000e+00
3.841061e-01 5.583836e-01 0.000000e+00
3.521324e-01 5.582999e-01 0.000000e+00
3.520346e-01 6.000000e-01 0.000000e+00
3.841061e-01 5.583836e-01 0.000000e+00
3.840017e-01 6.000000e-01 0.000000e+00
3.842841e-01 5.230200e-01 0.000000e+00
3.841061e-01 5.583836e-01 0.000000e+00
4.162587e-01 5.231863e-01 0.000000e+00
4.160695e-01 5.584745e-01 0.000000e+00
3.841061e-01 5.583836e-01 0.000000e+00
3.840017e-01 6.000000e-01 0.000000e+00
4.160695e-01 5.584745e-01 0.000000e+00
4.159594e-01 6.000000e-01 0.000000e+00
4.162587e-01 5.231863e-01 0.000000e+00
4.160695e-01 5.584745e-01 0.000000e+00
4.482206e-01 5.233653e-01 0.000000e+00
4.480215e-01 5.585724e-01 0.000000e+00
4.160695e-01 5.584745e-01 0.000000e+00
4.159594e-01 6.000000e-01 0.000000e+00
4.480215e-01 5.585724e-01 0.000000e+00
4.479069e-01 6.000000e-01 0.000000e+00
4.482206e-01 5.233653e-01 0.000000e+00
4.480215e-01 5.585724e-01 0.000000e+00
4.801686e-01 5.235569e-01 0.000000e+00
4.799612e-01 5.586776e-01 0.000000e+00
4.480215e-01 5.585724e-01 0.000000e+00
4.479069e-01 6.000000e-01 0.000000e+00
4.799612e-01 5.586776e-01 0.000000e+00
4.798434e-01 6.000000e-01 0.000000e+00
4.801686e-01 5.235569e-01 0.000000e+00
4.799612e-01 5.586776e-01 0.000000e+00
5.121011e-01 5.237612e-01 0.000000e+00
5.118875e-01 5.587899e-01 0.000000e+00
4.799612e-01 5.586776e-01 0.000000e+00
4.798434e-01 6.000000e-01 0.000000e+00
5.118875e-01 5.587899e-01 0.000000e+00
5.117685e-01 6.000000e-01 0.000000e+00
5.121011e-01 5.237612e-01 0.000000e+00
5.118875e-01 5.587899e-01 0.000000e+00
5.440167e-01 5.239778e-01 0.000000e+00
5.437994e-01 5.589095e-01 0.000000e+00
5.118875e-01 5.587899e-01 0.000000e+00
5.117685e-01 6.000000e-01 0.000000e+00
5.437994e-01 5.589095e-01 0.000000e+00
5.436814e-01 6.000000e-01 0.000000e+00
5.440167e-01 5.239778e-01 0.000000e+00
5.437994e-01 5.589095e-01 0.000000e+00
5.759134e-01 5.242070e-01 0.000000e+00
5.756959e-01 5.590364e-01 0.000000e+00
5.437994e-01 5.589095e-01 0.000000e+00
5.436814e-01 6.000000e-01 0.000000e+00
5.756959e-01 5.590364e-01 0.000000e+00
5.755819e-01 6.000000e-01 0.000000e+00
5.759134e-01 5.242070e-01 0.000000e+00
5.756959e-01 5.590364e-01 0.000000e+00
6.077895e-01 5.244484e-01 0.000000e+00
6.075758e-01 5.591709e-01 0.000000e+00
5.756959e-01 5.590364e-01 0.000000e+00
5.755819e-01 6.000000e-01 0.000000e+00
6.075758e-01 5.591709e-01 0.000000e+00
6.074698e-01 6.000000e-01 0.000000e+00
6.077895e-01 5.244484e-01 0.000000e+00
6.075758e-01 5.591709e-01 0.000000e+00
6.396426e-01 5.247023e-01 0.000000e+00
6.394381e-01 5.593132e-01 0.000000e+00
6.075758e-01 5.591709e-01 0.000000e+00
6.074698e-01 6.000000e-01 0.000000e+00
6.394381e-01 5.593132e-01 0.000000e+00
6.393451e-01 6.000000e-01 0.000000e+00
6.396426e-01 5.247023e-01 0.000000e+00
6.394381e-01 5.593132e-01 0.000000e+00
6.714701e-01 5.249686e-01 0.000000e+00
6.712818e-01 5.594637e-01 0.000000e+00
6.394381e-01 5.593132e-01 0.000000e+00
6.393451e-01 6.000000e-01 0.000000e+00
6.712818e-01 5.594637e-01 0.000000e+00
6.712083e-01 6.000000e-01 0.000000e+00
6.714701e-01 5.249686e-01 0.000000e+00
6.712818e-01 5.594637e-01 0.000000e+00
7.032691e-01 5.252475e-01 0.000000e+00
7.031060e-01 5.596227e-01 0.000000e+00
6.712818e-01 5.594637e-01 0.000000e+00
6.712083e-01 6.000000e-01 0.000000e+00
7.031060e-01 5.596227e-01 0.000000e+00
7.030603e-01 6.000000e-01 0.000000e+00
7.032691e-01 5.252475e-01 0.000000e+00
7.031060e-01 5.596227e-01 0.000000e+00
7.350360e-01 5.255391e-01 0.000000e+00
7.349098e-01 5.597911e-01 0.000000e+00
7.031060e-01 5.596227e-01 0.000000e+00
7.030603e-01 6.000000e-01 0.000000e+00
7.349098e-01 5.597911e-01 0.000000e+00
7.349028e-01 6.000000e-01 0.000000e+00
7.350360e-01 5.255391e-01 0.000000e+00
7.349098e-01 5.597911e-01 0.000000e+00
7.667666e-01 5.258438e-01 0.000000e+00
7.666924e-01 5.599697e-01 0.000000e+00
7.349098e-01 5.597911e-01 0.000000e+00
7.349028e-01 6.000000e-01 0.000000e+00
7.666924e-01 5.599697e-01 0.000000e+00
7.667383e-01 6.000000e-01 0.000000e+00
7.667666e-01 5.258438e-01 0.000000e+00
7.666924e-01 5.599697e-01 0.000000e+00
7.984558e-01 5.261620e-01 0.000000e+00
7.984534e-01 5.601596e-01 0.000000e+00
7.666924e-01 5.599697e-01 0.000000e+00
7.667383e-01 6.000000e-01 0.000000e+00
7.984534e-01 5.601596e-01 0.000000e+00
7.985704e-01 6.000000e-01 0.000000e+00
7.984558e-01 5.261620e-01 0.000000e+00
7.984534e-01 5.601596e-01 0.000000e+00
8.300973e-01 5.264942e-01 0.000000e+00
8.301923e-01 5.603622e-01 0.000000e+00
7.984534e-01 5.601596e-01 0.000000e+00
7.985704e-01 6.000000e-01 0.000000e+00
8.301923e-01 5.603622e-01 0.000000e+00
8.304044e-01 6.000000e-01 0.000000e+00
8.300973e-01 5.264942e-01 0.000000e+00
8.301923e-01 5.603622e-01 0.000000e+00
8.616832e-01 5.268410e-01 0.000000e+00
8.619092e-01 5.605794e-01 0.000000e+00
8.301923e-01 5.603622e-01 0.000000e+00
8.304044e-01 6.000000e-01 0.000000e+00
8.619092e-01 5.605794e-01 0.000000e+00
8.622474e-01 6.000000e-01 0.000000e+00
8.616832e-01 5.268410e-01 0.000000e+00
8.619092e-01 5.605794e-01 0.000000e+00
8.932037e-01 5.272032e-01 0.000000e+00
8.936043e-01 5.608136e-01 0.000000e+00
8.619092e-01 5.605794e-01 0.000000e+00
8.622474e-01 6.000000e-01 0.000000e+00
8.936043e-01 5.608136e-01 0.000000e+00
8.941093e-01 6.000000e-01 0.000000e+00
8.932037e-01 5.272032e-01 0.000000e+00
8.936043e-01 5.608136e-01 0.000000e+00
9.246463e-01 5.275815e-01 0.000000e+00
9.252784e-01 5.610675e-01 0.000000e+00
8.936043e-01 5.608136e-01 0.000000e+00
8.941093e-01 6.000000e-01 0.000000e+00
9.252784e-01 5.610675e-01 0.000000e+00
9.260033e-01 6.000000e-01 0.000000e+00
9.246463e-01 5.275815e-01 0.000000e+00
9.252784e-01 5.610675e-01 0.000000e+00
9.559952e-01 5.279761e-01 0.000000e+00
9.569324e-01 5.613442e-01 0.000000e+00
9.252784e-01 5.610675e-01 0.000000e+00
9.260033e-01 6.000000e-01 0.000000e+00
9.569324e-01 5.613442e-01 0.000000e+00
9.579469e-01 6.000000e-01 0.000000e+00
9.559952e-01 5.279761e-01 0.000000e+00
9.569324e-01 5.613442e-01 0.000000e+00
9.872300e-01 5.283863e-01 0.000000e+00
9.885667e-01 5.616468e-01 0.000000e+00
9.569324e-01 5.613442e-01 0.000000e+00
9.579469e-01 6.000000e-01 0.000000e+00
9.885667e-01 5.616468e-01 0.000000e+00
9.899631e-01 6.000000e-01 0.000000e+00
9.872300e-01 5.283863e-01 0.000000e+00
[...]
<PointData>
<DataArray type="Float32" Name="V1" format="ascii">
4.670291e+01
1.611025e+01
4.672154e+01
1.612887e+01
1.697787e+01
2.525837e+00
1.698621e+01
2.534181e+00
4.673077e+01
1.611768e+01
4.677780e+01
1.616471e+01
1.699292e+01
2.530747e+00
1.701475e+01
2.552576e+00
4.679878e+01
1.614349e+01
4.687721e+01
1.622192e+01
1.702786e+01
2.545322e+00
1.706503e+01
2.582496e+00
4.690875e+01
1.619011e+01
4.701885e+01
1.630021e+01
1.708429e+01
2.571133e+00
1.713680e+01
2.623643e+00
4.706096e+01
1.625767e+01
4.720301e+01
1.639973e+01
1.716231e+01
2.608220e+00
1.723026e+01
2.676163e+00
4.725578e+01
1.634637e+01
4.743014e+01
1.652073e+01
1.726214e+01
2.656675e+00
1.734568e+01
2.740216e+00
4.749366e+01
1.645645e+01
4.770075e+01
1.666354e+01
1.738402e+01
2.716632e+00
1.748339e+01
2.816000e+00
4.777514e+01
1.658821e+01
4.801548e+01
1.682855e+01
1.752830e+01
2.788269e+00
1.764379e+01
2.903751e+00
4.810087e+01
1.674204e+01
4.837504e+01
1.701621e+01
1.769538e+01
2.871807e+00
1.782732e+01
3.003749e+00
4.847157e+01
1.691836e+01
4.878025e+01
1.722704e+01
1.788574e+01
2.967513e+00
1.803454e+01
3.116321e+00
4.888806e+01
1.711769e+01
4.923199e+01
1.746162e+01
1.809991e+01
3.075703e+00
1.826606e+01
3.241850e+00
4.935124e+01
1.734063e+01
4.973124e+01
1.772063e+01
1.833853e+01
3.196750e+00
1.852257e+01
3.380787e+00
4.986205e+01
1.758783e+01
5.027903e+01
1.800481e+01
1.860232e+01
3.331088e+00
1.880489e+01
3.533650e+00
5.042152e+01
1.786006e+01
5.087645e+01
1.831499e+01
1.889209e+01
3.479236e+00
1.911391e+01
3.701056e+00
5.103069e+01
1.815820e+01
5.152459e+01
1.865210e+01
1.920875e+01
3.641793e+00
1.945068e+01
3.883722e+00
5.169058e+01
1.848321e+01
5.222453e+01
1.901716e+01
1.955333e+01
3.819470e+00
1.981636e+01
4.082495e+00
5.240220e+01
1.883621e+01
5.297730e+01
1.941131e+01
1.992701e+01
4.013111e+00
2.021229e+01
4.298385e+00
5.316641e+01
1.921846e+01
5.378377e+01
1.983581e+01
2.033111e+01
4.223720e+00
2.063999e+01
4.532600e+00
5.398392e+01
1.963140e+01
5.464459e+01
2.029206e+01
2.076712e+01
4.452508e+00
2.110122e+01
4.786605e+00
5.485509e+01
2.007667e+01
5.556004e+01
2.078162e+01
2.123677e+01
4.700943e+00
2.159801e+01
5.062182e+00
5.577983e+01
2.055618e+01
5.652987e+01
2.130622e+01
2.174202e+01
4.970826e+00
2.213274e+01
5.361537e+00
5.675737e+01
2.107215e+01
5.755303e+01
2.186781e+01
2.228516e+01
5.264371e+00
2.270819e+01
5.687403e+00
5.778597e+01
2.162720e+01
5.862734e+01
2.246858e+01
2.286885e+01
5.584365e+00
2.332772e+01
6.043233e+00
5.886248e+01
2.222444e+01
5.974908e+01
2.311104e+01
2.349624e+01
5.934304e+00
2.399534e+01
6.433406e+00
5.998188e+01
2.286761e+01
6.091233e+01
2.379805e+01
2.417106e+01
6.318651e+00
2.471595e+01
6.863540e+00
6.113653e+01
2.356129e+01
6.210819e+01
2.453295e+01
2.489783e+01
6.743147e+00
2.549560e+01
7.340919e+00
6.231524e+01
2.431112e+01
6.332372e+01
2.531961e+01
2.568199e+01
7.215266e+00
2.634180e+01
7.875082e+00
6.350203e+01
2.512411e+01
6.454054e+01
2.616262e+01
2.653018e+01
7.744852e+00
2.726401e+01
8.478681e+00
6.467462e+01
2.600902e+01
6.573302e+01
2.706742e+01
2.745046e+01
8.345077e+00
2.827412e+01
9.168730e+00
6.580245e+01
2.697677e+01
6.686611e+01
2.804043e+01
2.845250e+01
9.033912e+00
2.938715e+01
9.968564e+00
6.684445e+01
2.804097e+01
6.789286e+01
2.908939e+01
2.954739e+01
9.836549e+00
3.062189e+01
1.091105e+01
6.774643e+01
2.921843e+01
6.875192e+01
3.022392e+01
3.074675e+01
1.078971e+01
3.200138e+01
1.204435e+01
6.843856e+01
3.053011e+01
6.936614e+01
3.145769e+01
3.205947e+01
1.195004e+01
3.355288e+01
1.344345e+01
6.883311e+01
3.200413e+01
6.964483e+01
3.281585e+01
3.348339e+01
1.341173e+01
3.530733e+01
1.523567e+01
6.882210e+01
3.368735e+01
6.949527e+01
3.436053e+01
3.498422e+01
1.534996e+01
3.729807e+01
1.766381e+01
6.828523e+01
3.567624e+01
6.887376e+01
3.626477e+01
3.647543e+01
1.808654e+01
3.959826e+01
2.120937e+01
6.698189e+01
3.828864e+01
6.779440e+01
3.910115e+01
3.743386e+01
2.283837e+01
4.181594e+01
2.722045e+01
6.575625e+01
4.150364e+01
6.647439e+01
4.222178e+01
3.986756e+01
2.904409e+01
4.268502e+01
3.186155e+01
6.524848e+01
4.349301e+01
6.618949e+01
4.443402e+01
4.225233e+01
3.190401e+01
4.431604e+01
3.396772e+01
6.556832e+01
4.501196e+01
6.677099e+01
4.621463e+01
4.410413e+01
3.406465e+01
4.595054e+01
3.591106e+01
6.654967e+01
4.642955e+01
6.799392e+01
4.787380e+01
4.590078e+01
3.592967e+01
4.759823e+01
3.762712e+01
6.800038e+01
4.785770e+01
6.962138e+01
4.947870e+01
4.765841e+01
3.757778e+01
4.922713e+01
3.914650e+01
6.977516e+01
4.930355e+01
7.151287e+01
5.104126e+01
4.937348e+01
3.904170e+01
5.082765e+01
4.049587e+01
7.176613e+01
5.075488e+01
7.356991e+01
5.255866e+01
5.103844e+01
4.034888e+01
5.238892e+01
4.169936e+01
7.389147e+01
5.219496e+01
7.572008e+01
5.402357e+01
5.264557e+01
4.152236e+01
5.390089e+01
4.277768e+01
7.608754e+01
5.360799e+01
7.790777e+01
5.542822e+01
5.418768e+01
4.258123e+01
5.535450e+01
4.374805e+01
7.830406e+01
5.498054e+01
8.008937e+01
5.676584e+01
5.565870e+01
4.354083e+01
5.674226e+01
4.462439e+01
8.050105e+01
5.630167e+01
8.223034e+01
5.803096e+01
5.705370e+01
4.441331e+01
5.805818e+01
4.541779e+01
8.264661e+01
5.756275e+01
8.430328e+01
5.921942e+01
5.836894e+01
4.520818e+01
5.929771e+01
4.613695e+01
8.471539e+01
5.875714e+01
8.628645e+01
6.032821e+01
5.960163e+01
4.593289e+01
6.045745e+01
4.678871e+01
8.668733e+01
5.987978e+01
8.816276e+01
6.135521e+01
6.074983e+01
4.659325e+01
6.153500e+01
4.737842e+01
8.854669e+01
6.092692e+01
8.991882e+01
6.229905e+01
6.181224e+01
4.719381e+01
6.252869e+01
4.791026e+01
9.028122e+01
6.189583e+01
9.154427e+01
6.315888e+01
6.278807e+01
4.773817e+01
6.343744e+01
4.838755e+01
9.188150e+01
6.278459e+01
9.303120e+01
6.393429e+01
6.367693e+01
4.822917e+01
6.426064e+01
4.881288e+01
9.334039e+01
6.359190e+01
9.437362e+01
6.462512e+01
6.447873e+01
4.866907e+01
6.499798e+01
4.918832e+01
9.465252e+01
6.431690e+01
9.556707e+01
6.523145e+01
6.519356e+01
4.905968e+01
6.564940e+01
4.951552e+01
9.581396e+01
6.495911e+01
9.660831e+01
6.575346e+01
6.582167e+01
4.940247e+01
6.621499e+01
4.979579e+01
9.682185e+01
6.551827e+01
9.749499e+01
6.619142e+01
6.636337e+01
4.969859e+01
6.669492e+01
5.003015e+01
9.767418e+01
6.599432e+01
9.822546e+01
6.654560e+01
6.681901e+01
4.994899e+01
6.708944e+01
5.021942e+01
9.836956e+01
6.638726e+01
9.879860e+01
6.681630e+01
6.718896e+01
5.015441e+01
6.739877e+01
5.036422e+01
9.890709e+01
6.669719e+01
9.921365e+01
6.700375e+01
6.747354e+01
5.031543e+01
6.762312e+01
5.046501e+01
9.928616e+01
6.692418e+01
9.947013e+01
6.710815e+01
6.767303e+01
5.043246e+01
6.776267e+01
5.052210e+01
9.950644e+01
6.706833e+01
9.956777e+01
6.712966e+01
6.778763e+01
5.050583e+01
6.781750e+01
5.053569e+01
</DataArray>
<DataArray type="Float32" Name="V2" format="ascii">
5.220499e-01
5.578566e-01
5.226953e-01
5.584855e-01
5.578566e-01
6.000000e-01
5.584855e-01
6.006118e-01
5.226953e-01
5.584855e-01
5.246245e-01
5.603709e-01
5.584855e-01
6.006118e-01
5.603709e-01
6.024461e-01
5.246245e-01
5.603709e-01
5.278367e-01
5.635101e-01
5.603709e-01
6.024461e-01
5.635101e-01
6.055003e-01
5.278367e-01
5.635101e-01
5.323271e-01
5.678984e-01
5.635101e-01
6.055003e-01
5.678984e-01
6.097698e-01
5.323271e-01
5.678984e-01
5.380889e-01
5.735292e-01
5.678984e-01
6.097698e-01
5.735292e-01
6.152482e-01
5.380889e-01
5.735292e-01
5.451134e-01
5.803941e-01
5.735292e-01
6.152482e-01
5.803941e-01
6.219273e-01
5.451134e-01
5.803941e-01
5.533901e-01
5.884828e-01
5.803941e-01
6.219273e-01
5.884828e-01
6.297970e-01
5.533901e-01
5.884828e-01
5.629064e-01
5.977831e-01
5.884828e-01
6.297970e-01
5.977831e-01
6.388457e-01
5.629064e-01
5.977831e-01
5.736481e-01
6.082810e-01
5.977831e-01
6.388457e-01
6.082810e-01
6.490595e-01
5.736481e-01
6.082810e-01
5.855989e-01
6.199608e-01
6.082810e-01
6.490595e-01
6.199608e-01
6.604233e-01
5.855989e-01
6.199608e-01
5.987407e-01
6.328047e-01
6.199608e-01
6.604233e-01
6.328047e-01
6.729198e-01
5.987407e-01
6.328047e-01
6.130534e-01
6.467935e-01
6.328047e-01
6.729198e-01
6.467935e-01
6.865302e-01
6.130534e-01
6.467935e-01
6.285154e-01
6.619058e-01
6.467935e-01
6.865302e-01
6.619058e-01
7.012339e-01
6.285154e-01
6.619058e-01
6.451030e-01
6.781188e-01
6.619058e-01
7.012339e-01
6.781188e-01
7.170087e-01
6.451030e-01
6.781188e-01
6.627907e-01
6.954078e-01
6.781188e-01
7.170087e-01
6.954078e-01
7.338307e-01
6.627907e-01
6.954078e-01
6.815513e-01
7.137465e-01
6.954078e-01
7.338307e-01
7.137465e-01
7.516744e-01
6.815513e-01
7.137465e-01
7.013559e-01
7.331069e-01
7.137465e-01
7.516744e-01
7.331069e-01
7.705127e-01
7.013559e-01
7.331069e-01
7.221736e-01
7.534595e-01
7.331069e-01
7.705127e-01
7.534595e-01
7.903170e-01
7.221736e-01
7.534595e-01
7.439719e-01
7.747730e-01
7.534595e-01
7.903170e-01
7.747730e-01
8.110573e-01
7.439719e-01
7.747730e-01
7.667165e-01
7.970147e-01
7.747730e-01
8.110573e-01
7.970147e-01
8.327023e-01
7.667165e-01
7.970147e-01
7.903712e-01
8.201507e-01
7.970147e-01
8.327023e-01
8.201507e-01
8.552194e-01
7.903712e-01
8.201507e-01
8.148981e-01
8.441452e-01
8.201507e-01
8.552194e-01
8.441452e-01
8.785749e-01
8.148981e-01
8.441452e-01
8.402575e-01
8.689616e-01
8.441452e-01
8.785749e-01
8.689616e-01
9.027343e-01
8.402575e-01
8.689616e-01
8.664076e-01
8.945619e-01
8.689616e-01
9.027343e-01
8.945619e-01
9.276623e-01
8.664076e-01
8.945619e-01
8.933045e-01
9.209069e-01
8.945619e-01
9.276623e-01
9.209069e-01
9.533232e-01
8.933045e-01
9.209069e-01
9.209020e-01
9.479567e-01
9.209069e-01
9.533232e-01
9.479567e-01
9.796813e-01
9.209020e-01
9.479567e-01
9.491516e-01
9.756702e-01
9.479567e-01
9.796813e-01
9.756702e-01
1.006701e+00
9.491516e-01
9.756702e-01
9.780014e-01
1.004006e+00
9.756702e-01
1.006701e+00
1.004006e+00
1.034349e+00
9.780014e-01
1.004006e+00
1.007396e+00
1.032921e+00
1.004006e+00
1.034349e+00
1.032921e+00
1.062592e+00
1.007396e+00
1.032921e+00
1.037276e+00
1.062374e+00
1.032921e+00
1.062592e+00
1.062374e+00
1.091400e+00
1.037276e+00
1.062374e+00
1.067575e+00
1.092318e+00
1.062374e+00
1.091400e+00
1.092318e+00
1.120749e+00
1.067575e+00
1.092318e+00
1.098218e+00
1.122707e+00
1.092318e+00
1.120749e+00
1.122707e+00
1.150617e+00
1.098218e+00
1.122707e+00
1.129121e+00
1.153485e+00
1.122707e+00
1.150617e+00
1.153485e+00
1.180991e+00
1.129121e+00
1.153485e+00
1.160174e+00
1.184581e+00
1.153485e+00
1.180991e+00
1.184581e+00
1.211862e+00
1.160174e+00
1.184581e+00
1.191232e+00
1.215876e+00
1.184581e+00
1.211862e+00
1.215876e+00
1.243214e+00
1.191232e+00
1.215876e+00
1.222045e+00
1.247119e+00
1.215876e+00
1.243214e+00
1.247119e+00
1.274989e+00
1.222045e+00
1.247119e+00
1.252331e+00
1.277938e+00
1.247119e+00
1.274989e+00
1.277938e+00
1.306670e+00
1.252331e+00
1.277938e+00
1.281347e+00
1.307253e+00
1.277938e+00
1.306670e+00
1.307253e+00
1.336016e+00
1.281347e+00
1.307253e+00
1.308675e+00
1.334907e+00
1.307253e+00
1.336016e+00
1.334907e+00
1.363910e+00
1.308675e+00
1.334907e+00
1.334274e+00
1.360975e+00
1.334907e+00
1.363910e+00
1.360975e+00
1.390352e+00
1.334274e+00
1.360975e+00
1.358248e+00
1.385484e+00
1.360975e+00
1.390352e+00
1.385484e+00
1.415314e+00
1.358248e+00
1.385484e+00
1.380680e+00
1.408457e+00
1.385484e+00
1.415314e+00
1.408457e+00
1.438773e+00
1.380680e+00
1.408457e+00
1.401642e+00
1.429932e+00
1.408457e+00
1.438773e+00
1.429932e+00
1.460735e+00
1.401642e+00
1.429932e+00
1.421203e+00
1.449959e+00
1.429932e+00
1.460735e+00
1.449959e+00
1.481227e+00
1.421203e+00
1.449959e+00
1.439422e+00
1.468593e+00
1.449959e+00
1.481227e+00
1.468593e+00
1.500292e+00
1.439422e+00
1.468593e+00
1.456357e+00
1.485888e+00
1.468593e+00
1.500292e+00
1.485888e+00
1.517977e+00
1.456357e+00
1.485888e+00
1.472060e+00
1.501899e+00
1.485888e+00
1.517977e+00
1.501899e+00
1.534335e+00
1.472060e+00
1.501899e+00
1.486581e+00
1.516681e+00
1.501899e+00
1.534335e+00
1.516681e+00
1.549420e+00
1.486581e+00
1.516681e+00
1.499965e+00
1.530283e+00
1.516681e+00
1.549420e+00
1.530283e+00
1.563286e+00
1.499965e+00
1.530283e+00
1.512254e+00
1.542753e+00
1.530283e+00
1.563286e+00
1.542753e+00
1.575981e+00
1.512254e+00
1.542753e+00
1.523487e+00
1.554134e+00
1.542753e+00
1.575981e+00
1.554134e+00
1.587555e+00
1.523487e+00
1.554134e+00
1.533699e+00
1.564467e+00
1.554134e+00
1.587555e+00
1.564467e+00
1.598049e+00
1.533699e+00
1.564467e+00
1.542921e+00
1.573787e+00
1.564467e+00
1.598049e+00
1.573787e+00
1.607504e+00
1.542921e+00
1.573787e+00
1.551182e+00
1.582126e+00
1.573787e+00
1.607504e+00
1.582126e+00
1.615957e+00
1.551182e+00
1.582126e+00
1.558508e+00
1.589514e+00
1.582126e+00
1.615957e+00
1.589514e+00
1.623438e+00
1.558508e+00
1.589514e+00
1.564921e+00
1.595976e+00
1.589514e+00
1.623438e+00
1.595976e+00
1.629975e+00
1.564921e+00
1.595976e+00
1.570441e+00
1.601533e+00
1.595976e+00
1.629975e+00
1.601533e+00
1.635594e+00
1.570441e+00
1.601533e+00
1.575083e+00
1.606204e+00
1.601533e+00
1.635594e+00
1.606204e+00
1.640314e+00
1.575083e+00
1.606204e+00
1.578863e+00
1.610006e+00
1.606204e+00
1.640314e+00
1.610006e+00
1.644153e+00
1.578863e+00
1.610006e+00
1.581791e+00
1.612949e+00
1.610006e+00
1.644153e+00
1.612949e+00
1.647125e+00
1.581791e+00
1.612949e+00
1.583877e+00
1.615045e+00
1.612949e+00
1.647125e+00
1.615045e+00
1.649240e+00
1.583877e+00
1.615045e+00
1.585126e+00
1.616300e+00
1.615045e+00
1.649240e+00
1.616300e+00
1.650506e+00
1.585126e+00
1.616300e+00
1.585541e+00
1.616718e+00
1.616300e+00
1.650506e+00
1.616718e+00
1.650927e+00
</DataArray>
<DataArray type="Float32" Name="V3" format="ascii">
0.000000e+00
0.000000e+00
1.901904e-02
1.811050e-02
0.000000e+00
0.000000e+00
1.811050e-02
1.705034e-02
1.901904e-02
1.811050e-02
3.798472e-02
3.616861e-02
1.811050e-02
1.705034e-02
3.616861e-02
3.404947e-02
3.798472e-02
3.616861e-02
5.684341e-02
5.412194e-02
3.616861e-02
3.404947e-02
5.412194e-02
5.094634e-02
5.684341e-02
5.412194e-02
7.554181e-02
7.191826e-02
5.412194e-02
5.094634e-02
7.191826e-02
6.768995e-02
7.554181e-02
7.191826e-02
9.402678e-02
8.950549e-02
7.191826e-02
6.768995e-02
8.950549e-02
8.422947e-02
9.402678e-02
8.950549e-02
1.122454e-01
1.068318e-01
8.950549e-02
8.422947e-02
1.068318e-01
1.005143e-01
1.122454e-01
1.068318e-01
1.301452e-01
1.238458e-01
1.068318e-01
1.005143e-01
1.238458e-01
1.164943e-01
1.301452e-01
1.238458e-01
1.476738e-01
1.404961e-01
1.238458e-01
1.164943e-01
1.404961e-01
1.321193e-01
1.476738e-01
1.404961e-01
1.647795e-01
1.567322e-01
1.404961e-01
1.321193e-01
1.567322e-01
1.473400e-01
1.647795e-01
1.567322e-01
1.814109e-01
1.725037e-01
1.567322e-01
1.473400e-01
1.725037e-01
1.621073e-01
1.814109e-01
1.725037e-01
1.975174e-01
1.877610e-01
1.725037e-01
1.621073e-01
1.877610e-01
1.763728e-01
1.975174e-01
1.877610e-01
2.130486e-01
2.024549e-01
1.877610e-01
1.763728e-01
2.024549e-01
1.900885e-01
2.130486e-01
2.024549e-01
2.279551e-01
2.165370e-01
2.024549e-01
1.900885e-01
2.165370e-01
2.032073e-01
2.279551e-01
2.165370e-01
2.421881e-01
2.299595e-01
2.165370e-01
2.032073e-01
2.299595e-01
2.156827e-01
2.421881e-01
2.299595e-01
2.556995e-01
2.426754e-01
2.299595e-01
2.156827e-01
2.426754e-01
2.274690e-01
2.556995e-01
2.426754e-01
2.684419e-01
2.546387e-01
2.426754e-01
2.274690e-01
2.546387e-01
2.385216e-01
2.684419e-01
2.546387e-01
2.803690e-01
2.658041e-01
2.546387e-01
2.385216e-01
2.658041e-01
2.487965e-01
2.803690e-01
2.658041e-01
2.914352e-01
2.761272e-01
2.658041e-01
2.487965e-01
2.761272e-01
2.582512e-01
2.914352e-01
2.761272e-01
3.015958e-01
2.855648e-01
2.761272e-01
2.582512e-01
2.855648e-01
2.668439e-01
3.015958e-01
2.855648e-01
3.108069e-01
2.940746e-01
2.855648e-01
2.668439e-01
2.940746e-01
2.745343e-01
3.108069e-01
2.940746e-01
3.190258e-01
3.016153e-01
2.940746e-01
2.745343e-01
3.016153e-01
2.812834e-01
3.190258e-01
3.016153e-01
3.262106e-01
3.081470e-01
3.016153e-01
2.812834e-01
3.081470e-01
2.870538e-01
3.262106e-01
3.081470e-01
3.323200e-01
3.136307e-01
3.081470e-01
2.870538e-01
3.136307e-01
2.918096e-01
3.323200e-01
3.136307e-01
3.373139e-01
3.180289e-01
3.136307e-01
2.918096e-01
3.180289e-01
2.955169e-01
3.373139e-01
3.180289e-01
3.411529e-01
3.213050e-01
3.180289e-01
2.955169e-01
3.213050e-01
2.981435e-01
3.411529e-01
3.213050e-01
3.437980e-01
3.234241e-01
3.213050e-01
2.981435e-01
3.234241e-01
2.996597e-01
3.437980e-01
3.234241e-01
3.452110e-01
3.243522e-01
3.234241e-01
2.996597e-01
3.243522e-01
3.000383e-01
3.452110e-01
3.243522e-01
3.453540e-01
3.240566e-01
3.243522e-01
3.000383e-01
3.240566e-01
2.992549e-01
3.453540e-01
3.240566e-01
3.441892e-01
3.225060e-01
3.240566e-01
2.992549e-01
3.225060e-01
2.972884e-01
3.441892e-01
3.225060e-01
3.416792e-01
3.196701e-01
3.225060e-01
2.972884e-01
3.196701e-01
2.941211e-01
3.416792e-01
3.196701e-01
3.377865e-01
3.155197e-01
3.196701e-01
2.941211e-01
3.155197e-01
2.897397e-01
3.377865e-01
3.155197e-01
3.324745e-01
3.100267e-01
3.155197e-01
2.897397e-01
3.100267e-01
2.841353e-01
3.324745e-01
3.100267e-01
3.257093e-01
3.031650e-01
3.100267e-01
2.841353e-01
3.031650e-01
2.773032e-01
3.257093e-01
3.031650e-01
3.174650e-01
2.949130e-01
3.031650e-01
2.773032e-01
2.949130e-01
2.692411e-01
3.174650e-01
2.949130e-01
3.077381e-01
2.852645e-01
2.949130e-01
2.692411e-01
2.852645e-01
2.599361e-01
3.077381e-01
2.852645e-01
2.966005e-01
2.742701e-01
2.852645e-01
2.599361e-01
2.742701e-01
2.493406e-01
2.966005e-01
2.742701e-01
2.842508e-01
2.620712e-01
2.742701e-01
2.493406e-01
2.620712e-01
2.370664e-01
2.842508e-01
2.620712e-01
2.716028e-01
2.498471e-01
2.620712e-01
2.370664e-01
2.498471e-01
2.254740e-01
2.716028e-01
2.498471e-01
2.591368e-01
2.380538e-01
2.498471e-01
2.254740e-01
2.380538e-01
2.148275e-01
2.591368e-01
2.380538e-01
2.470642e-01
2.268521e-01
2.380538e-01
2.148275e-01
2.268521e-01
2.048371e-01
2.470642e-01
2.268521e-01
2.353450e-01
2.161319e-01
2.268521e-01
2.048371e-01
2.161319e-01
1.953525e-01
2.353450e-01
2.161319e-01
2.239276e-01
2.057903e-01
2.161319e-01
1.953525e-01
2.057903e-01
1.862583e-01
2.239276e-01
2.057903e-01
2.127570e-01
1.957357e-01
2.057903e-01
1.862583e-01
1.957357e-01
1.774518e-01
2.127570e-01
1.957357e-01
2.017836e-01
1.858915e-01
1.957357e-01
1.774518e-01
1.858915e-01
1.688444e-01
2.017836e-01
1.858915e-01
1.909637e-01
1.761942e-01
1.858915e-01
1.688444e-01
1.761942e-01
1.603620e-01
1.909637e-01
1.761942e-01
1.802597e-01
1.665920e-01
1.761942e-01
1.603620e-01
1.665920e-01
1.519439e-01
1.802597e-01
1.665920e-01
1.696394e-01
1.570434e-01
1.665920e-01
1.519439e-01
1.570434e-01
1.435422e-01
1.696394e-01
1.570434e-01
1.590761e-01
1.475154e-01
1.570434e-01
1.435422e-01
1.475154e-01
1.351198e-01
1.590761e-01
1.475154e-01
1.485478e-01
1.379826e-01
1.475154e-01
1.351198e-01
1.379826e-01
1.266490e-01
1.485478e-01
1.379826e-01
1.380369e-01
1.284257e-01
1.379826e-01
1.266490e-01
1.284257e-01
1.181101e-01
1.380369e-01
1.284257e-01
1.275291e-01
1.188311e-01
1.284257e-01
1.181101e-01
1.188311e-01
1.094900e-01
1.275291e-01
1.188311e-01
1.170140e-01
1.091892e-01
1.188311e-01
1.094900e-01
1.091892e-01
1.007809e-01
1.170140e-01
1.091892e-01
1.064836e-01
9.949449e-02
1.091892e-01
1.007809e-01
9.949449e-02
9.197963e-02
1.064836e-01
9.949449e-02
9.593262e-02
8.974418e-02
9.949449e-02
9.197963e-02
8.974418e-02
8.308639e-02
9.593262e-02
8.974418e-02
8.535792e-02
7.993822e-02
8.974418e-02
8.308639e-02
7.993822e-02
7.410437e-02
8.535792e-02
7.993822e-02
7.475808e-02
7.007856e-02
7.993822e-02
7.410437e-02
7.007856e-02
6.503898e-02
7.475808e-02
7.007856e-02
6.413326e-02
6.016881e-02
7.007856e-02
6.503898e-02
6.016881e-02
5.589749e-02
6.413326e-02
6.016881e-02
5.348485e-02
5.021396e-02
6.016881e-02
5.589749e-02
5.021396e-02
4.668857e-02
5.348485e-02
5.021396e-02
4.281531e-02
4.022005e-02
5.021396e-02
4.668857e-02
4.022005e-02
3.742200e-02
4.281531e-02
4.022005e-02
3.212792e-02
3.019397e-02
4.022005e-02
3.742200e-02
3.019397e-02
2.810841e-02
3.212792e-02
3.019397e-02
2.142659e-02
2.014324e-02
3.019397e-02
2.810841e-02
2.014324e-02
1.875903e-02
2.142659e-02
2.014324e-02
1.071572e-02
1.007582e-02
2.014324e-02
1.875903e-02
1.007582e-02
9.385571e-03
1.071572e-02
1.007582e-02
0.000000e+00
0.000000e+00
1.007582e-02
9.385571e-03
0.000000e+00
0.000000e+00
</DataArray>
<DataArray type="Float32" Name="V4" format="ascii">
8.500000e-01
9.250000e-01
8.500000e-01
9.250000e-01
9.250000e-01
1.000000e+00