<?xml version="1.0"?>
<VTKFile type="UnstructuredGrid" version="0.1" byte_order="LittleEndian" compressor="vtkZLibDataCompressor">
<UnstructuredGrid>
<Piece NumberOfPoints="504" NumberOfCells="126">
<Points>
<DataArray type="Float32" NumberOfComponents="3" format="ascii">
0.000000e+00 4.146230e-01 0.000000e+00
0.000000e+00 4.376343e-01 0.000000e+00
3.996909e-02 4.146314e-01 0.000000e+00
3.996659e-02 4.376359e-01 0.000000e+00
0.000000e+00 4.376343e-01 0.000000e+00
0.000000e+00 4.646875e-01 0.000000e+00
3.996659e-02 4.376359e-01 0.000000e+00
3.996608e-02 4.646875e-01 0.000000e+00
3.996909e-02 4.146314e-01 0.000000e+00
3.996659e-02 4.376359e-01 0.000000e+00
7.993716e-02 4.146439e-01 0.000000e+00
7.993208e-02 4.376426e-01 0.000000e+00
3.996659e-02 4.376359e-01 0.000000e+00
3.996608e-02 4.646875e-01 0.000000e+00
7.993208e-02 4.376426e-01 0.000000e+00
7.993095e-02 4.646875e-01 0.000000e+00
7.993716e-02 4.146439e-01 0.000000e+00
7.993208e-02 4.376426e-01 0.000000e+00
1.199027e-01 4.146646e-01 0.000000e+00
1.198951e-01 4.376538e-01 0.000000e+00
7.993208e-02 4.376426e-01 0.000000e+00
7.993095e-02 4.646875e-01 0.000000e+00
1.198951e-01 4.376538e-01 0.000000e+00
1.198934e-01 4.646875e-01 0.000000e+00
1.199027e-01 4.146646e-01 0.000000e+00
1.198951e-01 4.376538e-01 0.000000e+00
1.598644e-01 4.146936e-01 0.000000e+00
1.598543e-01 4.376695e-01 0.000000e+00
1.198951e-01 4.376538e-01 0.000000e+00
1.198934e-01 4.646875e-01 0.000000e+00
1.598543e-01 4.376695e-01 0.000000e+00
1.598520e-01 4.646875e-01 0.000000e+00
1.598644e-01 4.146936e-01 0.000000e+00
1.598543e-01 4.376695e-01 0.000000e+00
1.998212e-01 4.147309e-01 0.000000e+00
1.998085e-01 4.376897e-01 0.000000e+00
1.598543e-01 4.376695e-01 0.000000e+00
1.598520e-01 4.646875e-01 0.000000e+00
1.998085e-01 4.376897e-01 0.000000e+00
1.998058e-01 4.646875e-01 0.000000e+00
1.998212e-01 4.147309e-01 0.000000e+00
1.998085e-01 4.376897e-01 0.000000e+00
2.397715e-01 4.147764e-01 0.000000e+00
2.397565e-01 4.377143e-01 0.000000e+00
1.998085e-01 4.376897e-01 0.000000e+00
1.998058e-01 4.646875e-01 0.000000e+00
2.397565e-01 4.377143e-01 0.000000e+00
2.397532e-01 4.646875e-01 0.000000e+00
2.397715e-01 4.147764e-01 0.000000e+00
2.397565e-01 4.377143e-01 0.000000e+00
2.797143e-01 4.148301e-01 0.000000e+00
2.796969e-01 4.377434e-01 0.000000e+00
2.397565e-01 4.377143e-01 0.000000e+00
2.397532e-01 4.646875e-01 0.000000e+00
2.796969e-01 4.377434e-01 0.000000e+00
2.796932e-01 4.646875e-01 0.000000e+00
2.797143e-01 4.148301e-01 0.000000e+00
2.796969e-01 4.377434e-01 0.000000e+00
3.196482e-01 4.148919e-01 0.000000e+00
3.196285e-01 4.377768e-01 0.000000e+00
2.796969e-01 4.377434e-01 0.000000e+00
2.796932e-01 4.646875e-01 0.000000e+00
3.196285e-01 4.377768e-01 0.000000e+00
3.196244e-01 4.646875e-01 0.000000e+00
3.196482e-01 4.148919e-01 0.000000e+00
3.196285e-01 4.377768e-01 0.000000e+00
3.595718e-01 4.149619e-01 0.000000e+00
3.595498e-01 4.378147e-01 0.000000e+00
3.196285e-01 4.377768e-01 0.000000e+00
3.196244e-01 4.646875e-01 0.000000e+00
3.595498e-01 4.378147e-01 0.000000e+00
3.595454e-01 4.646875e-01 0.000000e+00
3.595718e-01 4.149619e-01 0.000000e+00
3.595498e-01 4.378147e-01 0.000000e+00
3.994838e-01 4.150399e-01 0.000000e+00
3.994597e-01 4.378569e-01 0.000000e+00
3.595498e-01 4.378147e-01 0.000000e+00
3.595454e-01 4.646875e-01 0.000000e+00
3.994597e-01 4.378569e-01 0.000000e+00
3.994550e-01 4.646875e-01 0.000000e+00
3.994838e-01 4.150399e-01 0.000000e+00
3.994597e-01 4.378569e-01 0.000000e+00
4.393828e-01 4.151260e-01 0.000000e+00
4.393567e-01 4.379035e-01 0.000000e+00
3.994597e-01 4.378569e-01 0.000000e+00
3.994550e-01 4.646875e-01 0.000000e+00
4.393567e-01 4.379035e-01 0.000000e+00
4.393519e-01 4.646875e-01 0.000000e+00
4.393828e-01 4.151260e-01 0.000000e+00
4.393567e-01 4.379035e-01 0.000000e+00
4.792674e-01 4.152200e-01 0.000000e+00
4.792393e-01 4.379544e-01 0.000000e+00
4.393567e-01 4.379035e-01 0.000000e+00
4.393519e-01 4.646875e-01 0.000000e+00
4.792393e-01 4.379544e-01 0.000000e+00
4.792345e-01 4.646875e-01 0.000000e+00
4.792674e-01 4.152200e-01 0.000000e+00
4.792393e-01 4.379544e-01 0.000000e+00
5.191362e-01 4.153219e-01 0.000000e+00
5.191063e-01 4.380095e-01 0.000000e+00
4.792393e-01 4.379544e-01 0.000000e+00
4.792345e-01 4.646875e-01 0.000000e+00
5.191063e-01 4.380095e-01 0.000000e+00
5.191016e-01 4.646875e-01 0.000000e+00
5.191362e-01 4.153219e-01 0.000000e+00
5.191063e-01 4.380095e-01 0.000000e+00
5.589876e-01 4.154316e-01 0.000000e+00
5.589562e-01 4.380689e-01 0.000000e+00
5.191063e-01 4.380095e-01 0.000000e+00
5.191016e-01 4.646875e-01 0.000000e+00
5.589562e-01 4.380689e-01 0.000000e+00
5.589516e-01 4.646875e-01 0.000000e+00
5.589876e-01 4.154316e-01 0.000000e+00
5.589562e-01 4.380689e-01 0.000000e+00
5.988201e-01 4.155490e-01 0.000000e+00
5.987873e-01 4.381325e-01 0.000000e+00
5.589562e-01 4.380689e-01 0.000000e+00
5.589516e-01 4.646875e-01 0.000000e+00
5.987873e-01 4.381325e-01 0.000000e+00
5.987832e-01 4.646875e-01 0.000000e+00
5.988201e-01 4.155490e-01 0.000000e+00
5.987873e-01 4.381325e-01 0.000000e+00
6.386323e-01 4.156742e-01 0.000000e+00
6.385983e-01 4.382003e-01 0.000000e+00
5.987873e-01 4.381325e-01 0.000000e+00
5.987832e-01 4.646875e-01 0.000000e+00
6.385983e-01 4.382003e-01 0.000000e+00
6.385948e-01 4.646875e-01 0.000000e+00
6.386323e-01 4.156742e-01 0.000000e+00
6.385983e-01 4.382003e-01 0.000000e+00
6.784224e-01 4.158068e-01 0.000000e+00
6.783875e-01 4.382722e-01 0.000000e+00
6.385983e-01 4.382003e-01 0.000000e+00
6.385948e-01 4.646875e-01 0.000000e+00
6.783875e-01 4.382722e-01 0.000000e+00
6.783849e-01 4.646875e-01 0.000000e+00
6.784224e-01 4.158068e-01 0.000000e+00
6.783875e-01 4.382722e-01 0.000000e+00
7.181888e-01 4.159470e-01 0.000000e+00
7.181533e-01 4.383481e-01 0.000000e+00
6.783875e-01 4.382722e-01 0.000000e+00
6.783849e-01 4.646875e-01 0.000000e+00
7.181533e-01 4.383481e-01 0.000000e+00
7.181520e-01 4.646875e-01 0.000000e+00
7.181888e-01 4.159470e-01 0.000000e+00
7.181533e-01 4.383481e-01 0.000000e+00
7.579297e-01 4.160946e-01 0.000000e+00
7.578941e-01 4.384281e-01 0.000000e+00
7.181533e-01 4.383481e-01 0.000000e+00
7.181520e-01 4.646875e-01 0.000000e+00
7.578941e-01 4.384281e-01 0.000000e+00
7.578944e-01 4.646875e-01 0.000000e+00
7.579297e-01 4.160946e-01 0.000000e+00
7.578941e-01 4.384281e-01 0.000000e+00
7.976434e-01 4.162495e-01 0.000000e+00
7.976082e-01 4.385121e-01 0.000000e+00
7.578941e-01 4.384281e-01 0.000000e+00
7.578944e-01 4.646875e-01 0.000000e+00
7.976082e-01 4.385121e-01 0.000000e+00
7.976105e-01 4.646875e-01 0.000000e+00
7.976434e-01 4.162495e-01 0.000000e+00
7.976082e-01 4.385121e-01 0.000000e+00
8.373279e-01 4.164116e-01 0.000000e+00
8.372937e-01 4.386001e-01 0.000000e+00
7.976082e-01 4.385121e-01 0.000000e+00
7.976105e-01 4.646875e-01 0.000000e+00
8.372937e-01 4.386001e-01 0.000000e+00
8.372987e-01 4.646875e-01 0.000000e+00
8.373279e-01 4.164116e-01 0.000000e+00
8.372937e-01 4.386001e-01 0.000000e+00
8.769813e-01 4.165808e-01 0.000000e+00
8.769488e-01 4.386919e-01 0.000000e+00
8.372937e-01 4.386001e-01 0.000000e+00
8.372987e-01 4.646875e-01 0.000000e+00
8.769488e-01 4.386919e-01 0.000000e+00
8.769572e-01 4.646875e-01 0.000000e+00
8.769813e-01 4.165808e-01 0.000000e+00
8.769488e-01 4.386919e-01 0.000000e+00
9.166016e-01 4.167569e-01 0.000000e+00
9.165718e-01 4.387876e-01 0.000000e+00
8.769488e-01 4.386919e-01 0.000000e+00
8.769572e-01 4.646875e-01 0.000000e+00
9.165718e-01 4.387876e-01 0.000000e+00
9.165845e-01 4.646875e-01 0.000000e+00
9.166016e-01 4.167569e-01 0.000000e+00
9.165718e-01 4.387876e-01 0.000000e+00
9.561865e-01 4.169400e-01 0.000000e+00
9.561606e-01 4.388872e-01 0.000000e+00
9.165718e-01 4.387876e-01 0.000000e+00
9.165845e-01 4.646875e-01 0.000000e+00
9.561606e-01 4.388872e-01 0.000000e+00
9.561789e-01 4.646875e-01 0.000000e+00
9.561865e-01 4.169400e-01 0.000000e+00
9.561606e-01 4.388872e-01 0.000000e+00
9.957338e-01 4.171298e-01 0.000000e+00
9.957133e-01 4.389906e-01 0.000000e+00
9.561606e-01 4.388872e-01 0.000000e+00
9.561789e-01 4.646875e-01 0.000000e+00
9.957133e-01 4.389906e-01 0.000000e+00
9.957386e-01 4.646875e-01 0.000000e+00
9.957338e-01 4.171298e-01 0.000000e+00
9.957133e-01 4.389906e-01 0.000000e+00
1.035241e+00 4.173263e-01 0.000000e+00
1.035228e+00 4.390978e-01 0.000000e+00
9.957133e-01 4.389906e-01 0.000000e+00
9.957386e-01 4.646875e-01 0.000000e+00
1.035228e+00 4.390978e-01 0.000000e+00
1.035262e+00 4.646875e-01 0.000000e+00
1.035241e+00 4.173263e-01 0.000000e+00
1.035228e+00 4.390978e-01 0.000000e+00
1.074706e+00 4.175294e-01 0.000000e+00
1.074702e+00 4.392088e-01 0.000000e+00
1.035228e+00 4.390978e-01 0.000000e+00
1.035262e+00 4.646875e-01 0.000000e+00
1.074702e+00 4.392088e-01 0.000000e+00
1.074748e+00 4.646875e-01 0.000000e+00
1.074706e+00 4.175294e-01 0.000000e+00
1.074702e+00 4.392088e-01 0.000000e+00
1.114125e+00 4.177390e-01 0.000000e+00
1.114134e+00 4.393236e-01 0.000000e+00
1.074702e+00 4.392088e-01 0.000000e+00
1.074748e+00 4.646875e-01 0.000000e+00
1.114134e+00 4.393236e-01 0.000000e+00
1.114194e+00 4.646875e-01 0.000000e+00
1.114125e+00 4.177390e-01 0.000000e+00
1.114134e+00 4.393236e-01 0.000000e+00
1.153495e+00 4.179549e-01 0.000000e+00
1.153521e+00 4.394423e-01 0.000000e+00
1.114134e+00 4.393236e-01 0.000000e+00
1.114194e+00 4.646875e-01 0.000000e+00
1.153521e+00 4.394423e-01 0.000000e+00
1.153600e+00 4.646875e-01 0.000000e+00
1.153495e+00 4.179549e-01 0.000000e+00
1.153521e+00 4.394423e-01 0.000000e+00
1.192813e+00 4.181772e-01 0.000000e+00
1.192862e+00 4.395649e-01 0.000000e+00
1.153521e+00 4.394423e-01 0.000000e+00
1.153600e+00 4.646875e-01 0.000000e+00
1.192862e+00 4.395649e-01 0.000000e+00
1.192964e+00 4.646875e-01 0.000000e+00
1.192813e+00 4.181772e-01 0.000000e+00
1.192862e+00 4.395649e-01 0.000000e+00
1.232076e+00 4.184057e-01 0.000000e+00
1.232154e+00 4.396916e-01 0.000000e+00
1.192862e+00 4.395649e-01 0.000000e+00
1.192964e+00 4.646875e-01 0.000000e+00
1.232154e+00 4.396916e-01 0.000000e+00
1.232286e+00 4.646875e-01 0.000000e+00
1.232076e+00 4.184057e-01 0.000000e+00
[...]
<PointData>
<DataArray type="Float32" Name="V1" format="ascii">
2.767771e+02
1.116444e+02
2.768812e+02
1.117485e+02
1.156314e+02
3.226622e+01
1.156739e+02
3.230877e+01
2.769155e+02
1.116854e+02
2.771695e+02
1.119393e+02
1.157101e+02
3.229310e+01
1.158293e+02
3.241231e+01
2.772588e+02
1.118307e+02
2.776741e+02
1.122460e+02
1.158977e+02
3.237649e+01
1.161023e+02
3.258114e+01
2.778149e+02
1.120892e+02
2.783931e+02
1.126674e+02
1.162016e+02
3.252386e+01
1.164913e+02
3.281355e+01
2.785849e+02
1.124613e+02
2.793281e+02
1.132044e+02
1.166222e+02
3.273520e+01
1.169973e+02
3.311033e+01
2.795709e+02
1.129480e+02
2.804814e+02
1.138585e+02
1.171605e+02
3.301096e+01
1.176218e+02
3.347233e+01
2.807753e+02
1.135508e+02
2.818558e+02
1.146312e+02
1.178178e+02
3.335185e+01
1.183665e+02
3.390059e+01
2.822014e+02
1.142712e+02
2.834547e+02
1.155245e+02
1.185959e+02
3.375877e+01
1.192334e+02
3.439630e+01
2.838527e+02
1.151113e+02
2.852822e+02
1.165408e+02
1.194968e+02
3.423284e+01
1.202248e+02
3.496085e+01
2.857335e+02
1.160733e+02
2.873430e+02
1.176828e+02
1.205229e+02
3.477537e+01
1.213434e+02
3.559583e+01
2.878487e+02
1.171597e+02
2.896424e+02
1.189535e+02
1.216770e+02
3.538788e+01
1.225922e+02
3.630306e+01
2.902036e+02
1.183736e+02
2.921865e+02
1.203565e+02
1.229621e+02
3.607212e+01
1.239746e+02
3.708456e+01
2.928045e+02
1.197183e+02
2.949818e+02
1.218955e+02
1.243818e+02
3.683005e+01
1.254944e+02
3.794263e+01
2.956582e+02
1.211974e+02
2.980357e+02
1.235749e+02
1.259401e+02
3.766388e+01
1.271560e+02
3.887980e+01
2.987722e+02
1.228152e+02
3.013565e+02
1.253995e+02
1.276412e+02
3.857609e+01
1.289640e+02
3.989890e+01
3.021548e+02
1.245761e+02
3.049530e+02
1.273744e+02
1.294900e+02
3.956944e+01
1.309237e+02
4.100308e+01
3.058151e+02
1.264854e+02
3.088351e+02
1.295054e+02
1.314919e+02
4.064697e+01
1.330407e+02
4.219581e+01
3.097630e+02
1.285485e+02
3.130133e+02
1.317988e+02
1.336527e+02
4.181209e+01
1.353215e+02
4.348093e+01
3.140092e+02
1.307716e+02
3.174991e+02
1.342614e+02
1.359788e+02
4.306856e+01
1.377729e+02
4.486269e+01
3.185656e+02
1.331614e+02
3.223050e+02
1.369009e+02
1.384773e+02
4.442055e+01
1.404026e+02
4.634582e+01
3.234445e+02
1.357253e+02
3.274445e+02
1.397252e+02
1.411560e+02
4.587268e+01
1.432188e+02
4.793554e+01
3.286595e+02
1.384713e+02
3.329318e+02
1.427436e+02
1.440232e+02
4.743009e+01
1.462308e+02
4.963767e+01
3.342251e+02
1.414084e+02
3.387823e+02
1.459655e+02
1.470883e+02
4.909851e+01
1.494485e+02
5.145872e+01
3.401567e+02
1.445461e+02
3.450124e+02
1.494018e+02
1.503614e+02
5.088434e+01
1.528830e+02
5.340597e+01
3.464705e+02
1.478951e+02
3.516394e+02
1.530640e+02
1.538537e+02
5.279479e+01
1.565465e+02
5.548762e+01
3.531837e+02
1.514672e+02
3.586813e+02
1.569648e+02
1.575773e+02
5.483797e+01
1.604524e+02
5.771298e+01
3.603140e+02
1.552751e+02
3.661569e+02
1.611180e+02
1.615459e+02
5.702311e+01
1.646154e+02
6.009266e+01
3.678799e+02
1.593331e+02
3.740854e+02
1.655386e+02
1.657742e+02
5.936076e+01
1.690523e+02
6.263887e+01
3.758998e+02
1.636568e+02
3.824862e+02
1.702432e+02
1.702786e+02
6.186310e+01
1.737813e+02
6.536577e+01
3.843919e+02
1.682638e+02
3.913780e+02
1.752499e+02
1.750774e+02
6.454430e+01
1.788231e+02
6.828996e+01
3.933736e+02
1.731735e+02
4.007786e+02
1.805785e+02
1.801910e+02
6.742101e+01
1.842011e+02
7.143107e+01
4.028603e+02
1.784079e+02
4.107033e+02
1.862509e+02
1.856422e+02
7.051301e+01
1.899418e+02
7.481263e+01
4.128643e+02
1.839916e+02
4.211637e+02
1.922910e+02
1.914566e+02
7.384406e+01
1.960757e+02
7.846314e+01
4.233929e+02
1.899528e+02
4.321654e+02
1.987254e+02
1.976635e+02
7.744306e+01
2.026379e+02
8.241751e+01
4.344458e+02
1.963239e+02
4.437051e+02
2.055832e+02
2.042960e+02
8.134556e+01
2.096696e+02
8.671912e+01
4.460119e+02
2.031422e+02
4.557664e+02
2.128967e+02
2.113926e+02
8.559587e+01
2.172193e+02
9.142254e+01
4.580644e+02
2.104513e+02
4.683146e+02
2.207015e+02
2.189976e+02
9.025004e+01
2.253449e+02
9.659734e+01
4.705546e+02
2.183023e+02
4.812888e+02
2.290365e+02
2.271624e+02
9.537989e+01
2.341161e+02
1.023335e+02
4.834039e+02
2.267553e+02
4.945919e+02
2.379433e+02
2.359470e+02
1.010791e+02
2.436172e+02
1.087493e+02
4.964928e+02
2.358806e+02
5.080782e+02
2.474661e+02
2.454197e+02
1.074721e+02
2.539505e+02
1.160030e+02
5.096475e+02
2.457600e+02
5.215366e+02
2.576492e+02
2.556557e+02
1.147286e+02
2.652387e+02
1.243116e+02
5.226207e+02
2.564877e+02
5.346711e+02
2.685381e+02
2.667266e+02
1.230879e+02
2.776219e+02
1.339833e+02
5.350609e+02
2.681793e+02
5.470763e+02
2.801947e+02
2.786656e+02
1.329079e+02
2.912402e+02
1.454825e+02
5.464347e+02
2.810306e+02
5.582041e+02
2.928000e+02
2.913547e+02
1.447919e+02
3.061737e+02
1.596109e+02
5.557189e+02
2.956329e+02
5.673649e+02
3.072789e+02
3.042686e+02
1.600128e+02
3.224286e+02
1.781728e+02
5.602361e+02
3.144140e+02
5.740919e+02
3.282699e+02
3.141340e+02
1.844890e+02
3.401380e+02
2.104930e+02
5.663349e+02
3.371719e+02
5.795323e+02
3.503692e+02
3.345823e+02
2.156221e+02
3.514252e+02
2.324650e+02
5.770326e+02
3.527624e+02
5.920532e+02
3.677829e+02
3.509794e+02
2.326082e+02
3.665497e+02
2.481786e+02
5.924961e+02
3.671190e+02
6.091541e+02
3.837770e+02
3.674414e+02
2.475463e+02
3.822072e+02
2.623120e+02
6.111450e+02
3.815885e+02
6.288213e+02
3.992648e+02
3.839937e+02
2.611006e+02
3.979564e+02
2.750633e+02
6.317102e+02
3.961364e+02
6.498302e+02
4.142564e+02
4.002512e+02
2.735059e+02
4.133874e+02
2.866420e+02
6.532484e+02
4.105580e+02
6.713169e+02
4.286265e+02
4.159901e+02
2.848782e+02
4.282673e+02
2.971554e+02
6.750111e+02
4.246203e+02
6.926068e+02
4.422160e+02
4.310226e+02
2.952904e+02
4.424021e+02
3.066700e+02
6.963891e+02
4.381047e+02
7.131578e+02
4.548733e+02
4.451870e+02
3.047874e+02
4.556271e+02
3.152275e+02
7.168820e+02
4.508186e+02
7.325290e+02
4.664657e+02
4.583431e+02
3.133946e+02
4.678021e+02
3.228536e+02
7.360779e+02
4.625981e+02
7.503609e+02
4.768811e+02
4.703704e+02
3.211237e+02
4.788092e+02
3.295624e+02
7.536401e+02
4.733057e+02
7.663616e+02
4.860272e+02
4.811673e+02
3.279775e+02
4.885507e+02
3.353610e+02
7.692952e+02
4.828283e+02
7.802966e+02
4.938298e+02
4.906491e+02
3.339537e+02
4.969468e+02
3.402513e+02
7.828241e+02
4.910739e+02
7.919802e+02
5.002301e+02
4.987469e+02
3.390466e+02
5.039334e+02
3.442330e+02
7.940543e+02
4.979689e+02
8.012688e+02
5.051834e+02
5.054056e+02
3.432495e+02
5.094603e+02
3.473041e+02
8.028539e+02
5.034558e+02
8.080556e+02
5.086575e+02
5.105825e+02
3.465556e+02
5.134897e+02
3.494628e+02
8.091259e+02
5.074909e+02
8.122659e+02
5.106309e+02
5.142462e+02
3.489587e+02
5.159949e+02
3.507074e+02
8.128051e+02
5.100433e+02
8.138549e+02
5.110931e+02
5.163756e+02
3.504539e+02
5.169592e+02
3.510376e+02
</DataArray>
<DataArray type="Float32" Name="V2" format="ascii">
4.146230e-01
4.376343e-01
4.154990e-01
4.384963e-01
4.376343e-01
4.646875e-01
4.384963e-01
4.655395e-01
4.154990e-01
4.384963e-01
4.181130e-01
4.410829e-01
4.384963e-01
4.655395e-01
4.410829e-01
4.680941e-01
4.181130e-01
4.410829e-01
4.224655e-01
4.453898e-01
4.410829e-01
4.680941e-01
4.453898e-01
4.723478e-01
4.224655e-01
4.453898e-01
4.285503e-01
4.514110e-01
4.453898e-01
4.723478e-01
4.514110e-01
4.782945e-01
4.285503e-01
4.514110e-01
4.363588e-01
4.591378e-01
4.514110e-01
4.782945e-01
4.591378e-01
4.859258e-01
4.363588e-01
4.591378e-01
4.458798e-01
4.685593e-01
4.591378e-01
4.859258e-01
4.685593e-01
4.952307e-01
4.458798e-01
4.685593e-01
4.570998e-01
4.796619e-01
4.685593e-01
4.952307e-01
4.796619e-01
5.061961e-01
4.570998e-01
4.796619e-01
4.700027e-01
4.924300e-01
4.796619e-01
5.061961e-01
4.924300e-01
5.188063e-01
4.700027e-01
4.924300e-01
4.845702e-01
5.068451e-01
4.924300e-01
5.188063e-01
5.068451e-01
5.330432e-01
4.845702e-01
5.068451e-01
5.007814e-01
5.228868e-01
5.068451e-01
5.330432e-01
5.228868e-01
5.488866e-01
5.007814e-01
5.228868e-01
5.186130e-01
5.405321e-01
5.228868e-01
5.488866e-01
5.405321e-01
5.663138e-01
5.186130e-01
5.405321e-01
5.380395e-01
5.597556e-01
5.405321e-01
5.663138e-01
5.597556e-01
5.852996e-01
5.380395e-01
5.597556e-01
5.590329e-01
5.805297e-01
5.597556e-01
5.852996e-01
5.805297e-01
6.058170e-01
5.590329e-01
5.805297e-01
5.815630e-01
6.028244e-01
5.805297e-01
6.058170e-01
6.028244e-01
6.278362e-01
5.815630e-01
6.028244e-01
6.055973e-01
6.266077e-01
6.028244e-01
6.278362e-01
6.266077e-01
6.513255e-01
6.055973e-01
6.266077e-01
6.311008e-01
6.518450e-01
6.266077e-01
6.513255e-01
6.518450e-01
6.762510e-01
6.311008e-01
6.518450e-01
6.580368e-01
6.784997e-01
6.518450e-01
6.762510e-01
6.784997e-01
7.025764e-01
6.580368e-01
6.784997e-01
6.863658e-01
7.065331e-01
6.784997e-01
7.025764e-01
7.065331e-01
7.302635e-01
6.863658e-01
7.065331e-01
7.160465e-01
7.359042e-01
7.065331e-01
7.302635e-01
7.359042e-01
7.592718e-01
7.160465e-01
7.359042e-01
7.470354e-01
7.665701e-01
7.359042e-01
7.592718e-01
7.665701e-01
7.895590e-01
7.470354e-01
7.665701e-01
7.792869e-01
7.984856e-01
7.665701e-01
7.895590e-01
7.984856e-01
8.210805e-01
7.792869e-01
7.984856e-01
8.127535e-01
8.316038e-01
7.984856e-01
8.210805e-01
8.316038e-01
8.537900e-01
8.127535e-01
8.316038e-01
8.473854e-01
8.658756e-01
8.316038e-01
8.537900e-01
8.658756e-01
8.876391e-01
8.473854e-01
8.658756e-01
8.831310e-01
9.012500e-01
8.658756e-01
8.876391e-01
9.012500e-01
9.225776e-01
8.831310e-01
9.012500e-01
9.199368e-01
9.376745e-01
9.012500e-01
9.225776e-01
9.376745e-01
9.585536e-01
9.199368e-01
9.376745e-01
9.577475e-01
9.750942e-01
9.376745e-01
9.585536e-01
9.750942e-01
9.955134e-01
9.577475e-01
9.750942e-01
9.965056e-01
1.013453e+00
9.750942e-01
9.955134e-01
1.013453e+00
1.033402e+00
9.965056e-01
1.013453e+00
1.036152e+00
1.052693e+00
1.013453e+00
1.033402e+00
1.052693e+00
1.072162e+00
1.036152e+00
1.052693e+00
1.076626e+00
1.092754e+00
1.052693e+00
1.072162e+00
1.092754e+00
1.111735e+00
1.076626e+00
1.092754e+00
1.117865e+00
1.133576e+00
1.092754e+00
1.111735e+00
1.133576e+00
1.152062e+00
1.117865e+00
1.133576e+00
1.159804e+00
1.175096e+00
1.133576e+00
1.152062e+00
1.175096e+00
1.193082e+00
1.159804e+00
1.175096e+00
1.202377e+00
1.217249e+00
1.175096e+00
1.193082e+00
1.217249e+00
1.234733e+00
1.202377e+00
1.217249e+00
1.245515e+00
1.259971e+00
1.217249e+00
1.234733e+00
1.259971e+00
1.276954e+00
1.245515e+00
1.259971e+00
1.289149e+00
1.303195e+00
1.259971e+00
1.276954e+00
1.303195e+00
1.319680e+00
1.289149e+00
1.303195e+00
1.333207e+00
1.346854e+00
1.303195e+00
1.319680e+00
1.346854e+00
1.362849e+00
1.333207e+00
1.346854e+00
1.377614e+00
1.390880e+00
1.346854e+00
1.362849e+00
1.390880e+00
1.406399e+00
1.377614e+00
1.390880e+00
1.422292e+00
1.435203e+00
1.390880e+00
1.406399e+00
1.435203e+00
1.450266e+00
1.422292e+00
1.435203e+00
1.467163e+00
1.479753e+00
1.435203e+00
1.450266e+00
1.479753e+00
1.494392e+00
1.467163e+00
1.479753e+00
1.512142e+00
1.524460e+00
1.479753e+00
1.494392e+00
1.524460e+00
1.538719e+00
1.512142e+00
1.524460e+00
1.557141e+00
1.569253e+00
1.524460e+00
1.538719e+00
1.569253e+00
1.583193e+00
1.557141e+00
1.569253e+00
1.602067e+00
1.614060e+00
1.569253e+00
1.583193e+00
1.614060e+00
1.627766e+00
1.602067e+00
1.614060e+00
1.646819e+00
1.658807e+00
1.614060e+00
1.627766e+00
1.658807e+00
1.672402e+00
1.646819e+00
1.658807e+00
1.691284e+00
1.703415e+00
1.658807e+00
1.672402e+00
1.703415e+00
1.717079e+00
1.691284e+00
1.703415e+00
1.735322e+00
1.747790e+00
1.703415e+00
1.717079e+00
1.747790e+00
1.761796e+00
1.735322e+00
1.747790e+00
1.778727e+00
1.791764e+00
1.747790e+00
1.761796e+00
1.791764e+00
1.806547e+00
1.778727e+00
1.791764e+00
1.821173e+00
1.834803e+00
1.791764e+00
1.806547e+00
1.834803e+00
1.850354e+00
1.821173e+00
1.834803e+00
1.861409e+00
1.875231e+00
1.834803e+00
1.850354e+00
1.875231e+00
1.890816e+00
1.861409e+00
1.875231e+00
1.898776e+00
1.912972e+00
1.875231e+00
1.890816e+00
1.912972e+00
1.928989e+00
1.898776e+00
1.912972e+00
1.933282e+00
1.948012e+00
1.912972e+00
1.928989e+00
1.948012e+00
1.964595e+00
1.933282e+00
1.948012e+00
1.964995e+00
1.980313e+00
1.948012e+00
1.964595e+00
1.980313e+00
1.997515e+00
1.964995e+00
1.980313e+00
1.993977e+00
2.009876e+00
1.980313e+00
1.997515e+00
2.009876e+00
2.027698e+00
1.993977e+00
2.009876e+00
2.020294e+00
2.036738e+00
2.009876e+00
2.027698e+00
2.036738e+00
2.055147e+00
2.020294e+00
2.036738e+00
2.044020e+00
2.060955e+00
2.036738e+00
2.055147e+00
2.060955e+00
2.079901e+00
2.044020e+00
2.060955e+00
2.065228e+00
2.082595e+00
2.060955e+00
2.079901e+00
2.082595e+00
2.102017e+00
2.065228e+00
2.082595e+00
2.083990e+00
2.101728e+00
2.082595e+00
2.102017e+00
2.101728e+00
2.121563e+00
2.083990e+00
2.101728e+00
2.100374e+00
2.118424e+00
2.101728e+00
2.121563e+00
2.118424e+00
2.138611e+00
2.100374e+00
2.118424e+00
2.114443e+00
2.132750e+00
2.118424e+00
2.138611e+00
2.132750e+00
2.153229e+00
2.114443e+00
2.132750e+00
2.126250e+00
2.144766e+00
2.132750e+00
2.153229e+00
2.144766e+00
2.165483e+00
2.126250e+00
2.144766e+00
2.135844e+00
2.154524e+00
2.144766e+00
2.165483e+00
2.154524e+00
2.175428e+00
2.135844e+00
2.154524e+00
2.143265e+00
2.162067e+00
2.154524e+00
2.175428e+00
2.162067e+00
2.183113e+00
2.143265e+00
2.162067e+00
2.148544e+00
2.167431e+00
2.162067e+00
2.183113e+00
2.167431e+00
2.188575e+00
2.148544e+00
2.167431e+00
2.151702e+00
2.170639e+00
2.167431e+00
2.188575e+00
2.170639e+00
2.191841e+00
2.151702e+00
2.170639e+00
2.152753e+00
2.171707e+00
2.170639e+00
2.191841e+00
2.171707e+00
2.192928e+00
</DataArray>
<DataArray type="Float32" Name="V3" format="ascii">
0.000000e+00
0.000000e+00
2.961962e-02
2.904360e-02
0.000000e+00
0.000000e+00
2.904360e-02
2.836868e-02
2.961962e-02
2.904360e-02
5.916950e-02
5.801804e-02
2.904360e-02
2.836868e-02
5.801804e-02
5.666883e-02
5.916950e-02
5.801804e-02
8.857949e-02
8.685391e-02
5.801804e-02
5.666883e-02
8.685391e-02
8.483197e-02
8.857949e-02
8.685391e-02
1.177799e-01
1.154821e-01
8.685391e-02
8.483197e-02
1.154821e-01
1.127898e-01
1.177799e-01
1.154821e-01
1.467012e-01
1.438339e-01
1.154821e-01
1.127898e-01
1.438339e-01
1.404741e-01
1.467012e-01
1.438339e-01
1.752743e-01
1.718407e-01
1.438339e-01
1.404741e-01
1.718407e-01
1.678173e-01
1.752743e-01
1.718407e-01
2.034304e-01
1.994343e-01
1.718407e-01
1.678173e-01
1.994343e-01
1.947519e-01
2.034304e-01
1.994343e-01
2.311011e-01
2.265472e-01
1.994343e-01
1.947519e-01
2.265472e-01
2.212110e-01
2.311011e-01
2.265472e-01
2.582189e-01
2.531122e-01
2.265472e-01
2.212110e-01
2.531122e-01
2.471282e-01
2.582189e-01
2.531122e-01
2.847165e-01
2.790629e-01
2.531122e-01
2.471282e-01
2.790629e-01
2.724377e-01
2.847165e-01
2.790629e-01
3.105276e-01
3.043334e-01
2.790629e-01
2.724377e-01
3.043334e-01
2.970746e-01
3.105276e-01
3.043334e-01
3.355867e-01
3.288588e-01
3.043334e-01
2.970746e-01
3.288588e-01
3.209744e-01
3.355867e-01
3.288588e-01
3.598289e-01
3.525749e-01
3.288588e-01
3.209744e-01
3.525749e-01
3.440738e-01
3.598289e-01
3.525749e-01
3.831905e-01
3.754186e-01
3.525749e-01
3.440738e-01
3.754186e-01
3.663102e-01
3.831905e-01
3.754186e-01
4.056088e-01
3.973276e-01
3.754186e-01
3.663102e-01
3.973276e-01
3.876222e-01
4.056088e-01
3.973276e-01
4.270222e-01
4.182409e-01
3.973276e-01
3.876222e-01
4.182409e-01
4.079491e-01
4.270222e-01
4.182409e-01
4.473700e-01
4.380985e-01
4.182409e-01
4.079491e-01
4.380985e-01
4.272319e-01
4.473700e-01
4.380985e-01
4.665931e-01
4.568417e-01
4.380985e-01
4.272319e-01
4.568417e-01
4.454122e-01
4.665931e-01
4.568417e-01
4.846335e-01
4.744130e-01
4.568417e-01
4.454122e-01
4.744130e-01
4.624334e-01
4.846335e-01
4.744130e-01
5.014346e-01
4.907565e-01
4.744130e-01
4.624334e-01
4.907565e-01
4.782401e-01
5.014346e-01
4.907565e-01
5.169414e-01
5.058175e-01
4.907565e-01
4.782401e-01
5.058175e-01
4.927781e-01
5.169414e-01
5.058175e-01
5.311003e-01
5.195430e-01
5.058175e-01
4.927781e-01
5.195430e-01
5.059952e-01
5.311003e-01
5.195430e-01
5.438592e-01
5.318815e-01
5.195430e-01
5.059952e-01
5.318815e-01
5.178403e-01
5.438592e-01
5.318815e-01
5.551677e-01
5.427830e-01
5.318815e-01
5.178403e-01
5.427830e-01
5.282643e-01
5.551677e-01
5.427830e-01
5.649772e-01
5.521995e-01
5.427830e-01
5.282643e-01
5.521995e-01
5.372196e-01
5.649772e-01
5.521995e-01
5.732408e-01
5.600846e-01
5.521995e-01
5.372196e-01
5.600846e-01
5.446607e-01
5.732408e-01
5.600846e-01
5.799133e-01
5.663938e-01
5.600846e-01
5.446607e-01
5.663938e-01
5.505437e-01
5.799133e-01
5.663938e-01
5.849515e-01
5.710844e-01
5.663938e-01
5.505437e-01
5.710844e-01
5.548268e-01
5.849515e-01
5.710844e-01
5.883140e-01
5.741159e-01
5.710844e-01
5.548268e-01
5.741159e-01
5.574704e-01
5.883140e-01
5.741159e-01
5.899614e-01
5.754496e-01
5.741159e-01
5.574704e-01
5.754496e-01
5.584368e-01
5.899614e-01
5.754496e-01
5.898562e-01
5.750490e-01
5.754496e-01
5.584368e-01
5.750490e-01
5.576908e-01
5.898562e-01
5.750490e-01
5.879629e-01
5.728796e-01
5.750490e-01
5.576908e-01
5.728796e-01
5.551993e-01
5.879629e-01
5.728796e-01
5.842480e-01
5.689092e-01
5.728796e-01
5.551993e-01
5.689092e-01
5.509317e-01
5.842480e-01
5.689092e-01
5.786801e-01
5.631078e-01
5.689092e-01
5.509317e-01
5.631078e-01
5.448603e-01
5.786801e-01
5.631078e-01
5.712295e-01
5.554475e-01
5.631078e-01
5.448603e-01
5.554475e-01
5.369598e-01
5.712295e-01
5.554475e-01
5.618687e-01
5.459029e-01
5.554475e-01
5.369598e-01
5.459029e-01
5.272079e-01
5.618687e-01
5.459029e-01
5.505718e-01
5.344509e-01
5.459029e-01
5.272079e-01
5.344509e-01
5.155852e-01
5.505718e-01
5.344509e-01
5.373150e-01
5.210704e-01
5.344509e-01
5.155852e-01
5.210704e-01
5.020760e-01
5.373150e-01
5.210704e-01
5.220760e-01
5.057429e-01
5.210704e-01
5.020760e-01
5.057429e-01
4.866677e-01
5.220760e-01
5.057429e-01
5.048343e-01
4.884520e-01
5.057429e-01
4.866677e-01
4.884520e-01
4.693519e-01
5.048343e-01
4.884520e-01
4.855709e-01
4.691833e-01
4.884520e-01
4.693519e-01
4.691833e-01
4.501245e-01
4.855709e-01
4.691833e-01
4.642689e-01
4.479248e-01
4.691833e-01
4.501245e-01
4.479248e-01
4.289870e-01
4.642689e-01
4.479248e-01
4.409146e-01
4.246679e-01
4.479248e-01
4.289870e-01
4.246679e-01
4.059479e-01
4.409146e-01
4.246679e-01
4.155032e-01
3.994128e-01
4.246679e-01
4.059479e-01
3.994128e-01
3.810242e-01
4.155032e-01
3.994128e-01
3.880750e-01
3.721963e-01
3.994128e-01
3.810242e-01
3.721963e-01
3.542227e-01
3.880750e-01
3.721963e-01
3.589500e-01
3.433019e-01
3.721963e-01
3.542227e-01
3.433019e-01
3.252580e-01
3.589500e-01
3.433019e-01
3.305623e-01
3.155143e-01
3.433019e-01
3.252580e-01
3.155143e-01
2.983289e-01
3.305623e-01
3.155143e-01
3.039786e-01
2.896464e-01
3.155143e-01
2.983289e-01
2.896464e-01
2.734441e-01
3.039786e-01
2.896464e-01
2.790080e-01
2.654873e-01
2.896464e-01
2.734441e-01
2.654873e-01
2.503131e-01
2.790080e-01
2.654873e-01
2.553710e-01
2.427427e-01
2.654873e-01
2.503131e-01
2.427427e-01
2.286406e-01
2.553710e-01
2.427427e-01
2.328374e-01
2.211614e-01
2.427427e-01
2.286406e-01
2.211614e-01
2.081656e-01
2.328374e-01
2.211614e-01
2.112082e-01
2.005232e-01
2.211614e-01
2.081656e-01
2.005232e-01
1.886566e-01
2.112082e-01
2.005232e-01
1.903150e-01
1.806418e-01
2.005232e-01
1.886566e-01
1.806418e-01
1.699147e-01
1.903150e-01
1.806418e-01
1.700164e-01
1.613619e-01
1.806418e-01
1.699147e-01
1.613619e-01
1.517737e-01
1.700164e-01
1.613619e-01
1.501948e-01
1.425553e-01
1.613619e-01
1.517737e-01
1.425553e-01
1.340969e-01
1.501948e-01
1.425553e-01
1.307529e-01
1.241177e-01
1.425553e-01
1.340969e-01
1.241177e-01
1.167743e-01
1.307529e-01
1.241177e-01
1.116103e-01
1.059648e-01
1.241177e-01
1.167743e-01
1.059648e-01
9.971817e-02
1.116103e-01
1.059648e-01
9.270068e-02
8.802848e-02
1.059648e-01
9.971817e-02
8.802848e-02
8.285942e-02
9.270068e-02
8.802848e-02
7.396917e-02
7.025410e-02
8.802848e-02
8.285942e-02
7.025410e-02
6.614419e-02
7.396917e-02
7.025410e-02
5.536989e-02
5.259750e-02
7.025410e-02
6.614419e-02
5.259750e-02
4.953050e-02
5.536989e-02
5.259750e-02
3.686395e-02
3.502255e-02
5.259750e-02
4.953050e-02
3.502255e-02
3.298546e-02
3.686395e-02
3.502255e-02
1.841750e-02
1.749891e-02
3.502255e-02
3.298546e-02
1.749891e-02
1.648268e-02
1.841750e-02
1.749891e-02
0.000000e+00
0.000000e+00
1.749891e-02
1.648268e-02
0.000000e+00
0.000000e+00
</DataArray>
<DataArray type="Float32" Name="V4" format="ascii">
8.500000e-01
9.250000e-01
8.500000e-01
9.250000e-01
9.250000e-01
1.000000e+00