<?xml version="1.0"?>
<VTKFile type="UnstructuredGrid" version="0.1" byte_order="LittleEndian" compressor="vtkZLibDataCompressor">
<UnstructuredGrid>
<Piece NumberOfPoints="504" NumberOfCells="126">
<Points>
<DataArray type="Float32" NumberOfComponents="3" format="ascii">
0.000000e+00 5.055467e-01 0.000000e+00
0.000000e+00 5.397500e-01 0.000000e+00
3.278571e-02 5.055552e-01 0.000000e+00
3.277193e-02 5.397535e-01 0.000000e+00
0.000000e+00 5.397500e-01 0.000000e+00
0.000000e+00 5.800000e-01 0.000000e+00
3.277193e-02 5.397535e-01 0.000000e+00
3.276362e-02 5.800000e-01 0.000000e+00
3.278571e-02 5.055552e-01 0.000000e+00
3.277193e-02 5.397535e-01 0.000000e+00
6.557065e-02 5.055743e-01 0.000000e+00
6.554302e-02 5.397639e-01 0.000000e+00
3.277193e-02 5.397535e-01 0.000000e+00
3.276362e-02 5.800000e-01 0.000000e+00
6.554302e-02 5.397639e-01 0.000000e+00
6.552634e-02 5.800000e-01 0.000000e+00
6.557065e-02 5.055743e-01 0.000000e+00
6.554302e-02 5.397639e-01 0.000000e+00
9.835371e-02 5.056061e-01 0.000000e+00
9.831233e-02 5.397812e-01 0.000000e+00
6.554302e-02 5.397639e-01 0.000000e+00
6.552634e-02 5.800000e-01 0.000000e+00
9.831233e-02 5.397812e-01 0.000000e+00
9.828735e-02 5.800000e-01 0.000000e+00
9.835371e-02 5.056061e-01 0.000000e+00
9.831233e-02 5.397812e-01 0.000000e+00
1.311340e-01 5.056507e-01 0.000000e+00
1.310790e-01 5.398054e-01 0.000000e+00
9.831233e-02 5.397812e-01 0.000000e+00
9.828735e-02 5.800000e-01 0.000000e+00
1.310790e-01 5.398054e-01 0.000000e+00
1.310458e-01 5.800000e-01 0.000000e+00
1.311340e-01 5.056507e-01 0.000000e+00
1.310790e-01 5.398054e-01 0.000000e+00
1.639105e-01 5.057079e-01 0.000000e+00
1.638420e-01 5.398364e-01 0.000000e+00
1.310790e-01 5.398054e-01 0.000000e+00
1.310458e-01 5.800000e-01 0.000000e+00
1.638420e-01 5.398364e-01 0.000000e+00
1.638007e-01 5.800000e-01 0.000000e+00
1.639105e-01 5.057079e-01 0.000000e+00
1.638420e-01 5.398364e-01 0.000000e+00
1.966823e-01 5.057777e-01 0.000000e+00
1.966005e-01 5.398743e-01 0.000000e+00
1.638420e-01 5.398364e-01 0.000000e+00
1.638007e-01 5.800000e-01 0.000000e+00
1.966005e-01 5.398743e-01 0.000000e+00
1.965513e-01 5.800000e-01 0.000000e+00
1.966823e-01 5.057777e-01 0.000000e+00
1.966005e-01 5.398743e-01 0.000000e+00
2.294485e-01 5.058601e-01 0.000000e+00
2.293536e-01 5.399191e-01 0.000000e+00
1.966005e-01 5.398743e-01 0.000000e+00
1.965513e-01 5.800000e-01 0.000000e+00
2.293536e-01 5.399191e-01 0.000000e+00
2.292966e-01 5.800000e-01 0.000000e+00
2.294485e-01 5.058601e-01 0.000000e+00
2.293536e-01 5.399191e-01 0.000000e+00
2.622080e-01 5.059550e-01 0.000000e+00
2.621003e-01 5.399706e-01 0.000000e+00
2.293536e-01 5.399191e-01 0.000000e+00
2.292966e-01 5.800000e-01 0.000000e+00
2.621003e-01 5.399706e-01 0.000000e+00
2.620358e-01 5.800000e-01 0.000000e+00
2.622080e-01 5.059550e-01 0.000000e+00
2.621003e-01 5.399706e-01 0.000000e+00
2.949597e-01 5.060623e-01 0.000000e+00
2.948397e-01 5.400289e-01 0.000000e+00
2.621003e-01 5.399706e-01 0.000000e+00
2.620358e-01 5.800000e-01 0.000000e+00
2.948397e-01 5.400289e-01 0.000000e+00
2.947680e-01 5.800000e-01 0.000000e+00
2.949597e-01 5.060623e-01 0.000000e+00
2.948397e-01 5.400289e-01 0.000000e+00
3.277027e-01 5.061819e-01 0.000000e+00
3.275707e-01 5.400940e-01 0.000000e+00
2.948397e-01 5.400289e-01 0.000000e+00
2.947680e-01 5.800000e-01 0.000000e+00
3.275707e-01 5.400940e-01 0.000000e+00
3.274921e-01 5.800000e-01 0.000000e+00
3.277027e-01 5.061819e-01 0.000000e+00
3.275707e-01 5.400940e-01 0.000000e+00
3.604358e-01 5.063138e-01 0.000000e+00
3.602924e-01 5.401657e-01 0.000000e+00
3.275707e-01 5.400940e-01 0.000000e+00
3.274921e-01 5.800000e-01 0.000000e+00
3.602924e-01 5.401657e-01 0.000000e+00
3.602074e-01 5.800000e-01 0.000000e+00
3.604358e-01 5.063138e-01 0.000000e+00
3.602924e-01 5.401657e-01 0.000000e+00
3.931578e-01 5.064578e-01 0.000000e+00
3.930037e-01 5.402442e-01 0.000000e+00
3.602924e-01 5.401657e-01 0.000000e+00
3.602074e-01 5.800000e-01 0.000000e+00
3.930037e-01 5.402442e-01 0.000000e+00
3.929128e-01 5.800000e-01 0.000000e+00
3.931578e-01 5.064578e-01 0.000000e+00
3.930037e-01 5.402442e-01 0.000000e+00
4.258676e-01 5.066139e-01 0.000000e+00
4.257035e-01 5.403292e-01 0.000000e+00
3.930037e-01 5.402442e-01 0.000000e+00
3.929128e-01 5.800000e-01 0.000000e+00
4.257035e-01 5.403292e-01 0.000000e+00
4.256075e-01 5.800000e-01 0.000000e+00
4.258676e-01 5.066139e-01 0.000000e+00
4.257035e-01 5.403292e-01 0.000000e+00
4.585638e-01 5.067819e-01 0.000000e+00
4.583908e-01 5.404209e-01 0.000000e+00
4.257035e-01 5.403292e-01 0.000000e+00
4.256075e-01 5.800000e-01 0.000000e+00
4.583908e-01 5.404209e-01 0.000000e+00
4.582905e-01 5.800000e-01 0.000000e+00
4.585638e-01 5.067819e-01 0.000000e+00
4.583908e-01 5.404209e-01 0.000000e+00
4.912450e-01 5.069617e-01 0.000000e+00
4.910644e-01 5.405192e-01 0.000000e+00
4.583908e-01 5.404209e-01 0.000000e+00
4.582905e-01 5.800000e-01 0.000000e+00
4.910644e-01 5.405192e-01 0.000000e+00
4.909610e-01 5.800000e-01 0.000000e+00
4.912450e-01 5.069617e-01 0.000000e+00
4.910644e-01 5.405192e-01 0.000000e+00
5.239100e-01 5.071533e-01 0.000000e+00
5.237232e-01 5.406241e-01 0.000000e+00
4.910644e-01 5.405192e-01 0.000000e+00
4.909610e-01 5.800000e-01 0.000000e+00
5.237232e-01 5.406241e-01 0.000000e+00
5.236180e-01 5.800000e-01 0.000000e+00
5.239100e-01 5.071533e-01 0.000000e+00
5.237232e-01 5.406241e-01 0.000000e+00
5.565570e-01 5.073564e-01 0.000000e+00
5.563660e-01 5.407357e-01 0.000000e+00
5.237232e-01 5.406241e-01 0.000000e+00
5.236180e-01 5.800000e-01 0.000000e+00
5.563660e-01 5.407357e-01 0.000000e+00
5.562608e-01 5.800000e-01 0.000000e+00
5.565570e-01 5.073564e-01 0.000000e+00
5.563660e-01 5.407357e-01 0.000000e+00
5.891843e-01 5.075712e-01 0.000000e+00
5.889916e-01 5.408539e-01 0.000000e+00
5.563660e-01 5.407357e-01 0.000000e+00
5.562608e-01 5.800000e-01 0.000000e+00
5.889916e-01 5.408539e-01 0.000000e+00
5.888887e-01 5.800000e-01 0.000000e+00
5.891843e-01 5.075712e-01 0.000000e+00
5.889916e-01 5.408539e-01 0.000000e+00
6.217902e-01 5.077973e-01 0.000000e+00
6.215988e-01 5.409789e-01 0.000000e+00
5.889916e-01 5.408539e-01 0.000000e+00
5.888887e-01 5.800000e-01 0.000000e+00
6.215988e-01 5.409789e-01 0.000000e+00
6.215011e-01 5.800000e-01 0.000000e+00
6.217902e-01 5.077973e-01 0.000000e+00
6.215988e-01 5.409789e-01 0.000000e+00
6.543725e-01 5.080349e-01 0.000000e+00
6.541864e-01 5.411107e-01 0.000000e+00
6.215988e-01 5.409789e-01 0.000000e+00
6.215011e-01 5.800000e-01 0.000000e+00
6.541864e-01 5.411107e-01 0.000000e+00
6.540975e-01 5.800000e-01 0.000000e+00
6.543725e-01 5.080349e-01 0.000000e+00
6.541864e-01 5.411107e-01 0.000000e+00
6.869289e-01 5.082838e-01 0.000000e+00
6.867531e-01 5.412497e-01 0.000000e+00
6.541864e-01 5.411107e-01 0.000000e+00
6.540975e-01 5.800000e-01 0.000000e+00
6.867531e-01 5.412497e-01 0.000000e+00
6.866778e-01 5.800000e-01 0.000000e+00
6.869289e-01 5.082838e-01 0.000000e+00
6.867531e-01 5.412497e-01 0.000000e+00
7.194568e-01 5.085441e-01 0.000000e+00
7.192978e-01 5.413961e-01 0.000000e+00
6.867531e-01 5.412497e-01 0.000000e+00
6.866778e-01 5.800000e-01 0.000000e+00
7.192978e-01 5.413961e-01 0.000000e+00
7.192421e-01 5.800000e-01 0.000000e+00
7.194568e-01 5.085441e-01 0.000000e+00
7.192978e-01 5.413961e-01 0.000000e+00
7.519531e-01 5.088159e-01 0.000000e+00
7.518192e-01 5.415502e-01 0.000000e+00
7.192978e-01 5.413961e-01 0.000000e+00
7.192421e-01 5.800000e-01 0.000000e+00
7.518192e-01 5.415502e-01 0.000000e+00
7.517911e-01 5.800000e-01 0.000000e+00
7.519531e-01 5.088159e-01 0.000000e+00
7.518192e-01 5.415502e-01 0.000000e+00
7.844144e-01 5.090992e-01 0.000000e+00
7.843163e-01 5.417126e-01 0.000000e+00
7.518192e-01 5.415502e-01 0.000000e+00
7.517911e-01 5.800000e-01 0.000000e+00
7.843163e-01 5.417126e-01 0.000000e+00
7.843259e-01 5.800000e-01 0.000000e+00
7.844144e-01 5.090992e-01 0.000000e+00
7.843163e-01 5.417126e-01 0.000000e+00
8.168364e-01 5.093943e-01 0.000000e+00
8.167881e-01 5.418840e-01 0.000000e+00
7.843163e-01 5.417126e-01 0.000000e+00
7.843259e-01 5.800000e-01 0.000000e+00
8.167881e-01 5.418840e-01 0.000000e+00
8.168486e-01 5.800000e-01 0.000000e+00
8.168364e-01 5.093943e-01 0.000000e+00
8.167881e-01 5.418840e-01 0.000000e+00
8.492142e-01 5.097016e-01 0.000000e+00
8.492337e-01 5.420653e-01 0.000000e+00
8.167881e-01 5.418840e-01 0.000000e+00
8.168486e-01 5.800000e-01 0.000000e+00
8.492337e-01 5.420653e-01 0.000000e+00
8.493621e-01 5.800000e-01 0.000000e+00
8.492142e-01 5.097016e-01 0.000000e+00
8.492337e-01 5.420653e-01 0.000000e+00
8.815416e-01 5.100213e-01 0.000000e+00
8.816525e-01 5.422578e-01 0.000000e+00
8.492337e-01 5.420653e-01 0.000000e+00
8.493621e-01 5.800000e-01 0.000000e+00
8.816525e-01 5.422578e-01 0.000000e+00
8.818708e-01 5.800000e-01 0.000000e+00
8.815416e-01 5.100213e-01 0.000000e+00
8.816525e-01 5.422578e-01 0.000000e+00
9.138113e-01 5.103541e-01 0.000000e+00
9.140440e-01 5.424631e-01 0.000000e+00
8.816525e-01 5.422578e-01 0.000000e+00
8.818708e-01 5.800000e-01 0.000000e+00
9.140440e-01 5.424631e-01 0.000000e+00
9.143810e-01 5.800000e-01 0.000000e+00
9.138113e-01 5.103541e-01 0.000000e+00
9.140440e-01 5.424631e-01 0.000000e+00
9.460139e-01 5.107005e-01 0.000000e+00
9.464082e-01 5.426830e-01 0.000000e+00
9.140440e-01 5.424631e-01 0.000000e+00
9.143810e-01 5.800000e-01 0.000000e+00
9.464082e-01 5.426830e-01 0.000000e+00
9.469011e-01 5.800000e-01 0.000000e+00
9.460139e-01 5.107005e-01 0.000000e+00
9.464082e-01 5.426830e-01 0.000000e+00
9.781378e-01 5.110612e-01 0.000000e+00
9.787453e-01 5.429199e-01 0.000000e+00
9.464082e-01 5.426830e-01 0.000000e+00
9.469011e-01 5.800000e-01 0.000000e+00
9.787453e-01 5.429199e-01 0.000000e+00
9.794429e-01 5.800000e-01 0.000000e+00
9.781378e-01 5.110612e-01 0.000000e+00
9.787453e-01 5.429199e-01 0.000000e+00
1.010168e+00 5.114367e-01 0.000000e+00
1.011056e+00 5.431768e-01 0.000000e+00
9.787453e-01 5.429199e-01 0.000000e+00
9.794429e-01 5.800000e-01 0.000000e+00
1.011056e+00 5.431768e-01 0.000000e+00
1.012022e+00 5.800000e-01 0.000000e+00
1.010168e+00 5.114367e-01 0.000000e+00
[...]
<PointData>
<DataArray type="Float32" Name="V1" format="ascii">
5.636048e+01
1.963542e+01
5.638262e+01
1.965755e+01
2.065676e+01
3.238287e+00
2.066655e+01
3.248084e+00
5.639328e+01
1.964425e+01
5.644905e+01
1.970002e+01
2.067458e+01
3.244057e+00
2.070041e+01
3.269881e+00
5.647351e+01
1.967500e+01
5.656637e+01
1.976785e+01
2.071603e+01
3.261265e+00
2.076005e+01
3.305292e+00
5.660324e+01
1.973044e+01
5.673351e+01
1.986072e+01
2.078297e+01
3.291785e+00
2.084517e+01
3.353990e+00
5.678280e+01
1.981074e+01
5.695085e+01
1.997880e+01
2.087553e+01
3.335637e+00
2.095603e+01
3.416129e+00
5.701265e+01
1.991613e+01
5.721891e+01
2.012239e+01
2.099395e+01
3.392945e+00
2.109292e+01
3.491917e+00
5.729334e+01
2.004690e+01
5.753832e+01
2.029188e+01
2.113853e+01
3.463853e+00
2.125625e+01
3.581573e+00
5.762552e+01
2.020340e+01
5.790984e+01
2.048772e+01
2.130967e+01
3.548575e+00
2.144647e+01
3.685375e+00
5.800998e+01
2.038608e+01
5.833434e+01
2.071044e+01
2.150783e+01
3.647363e+00
2.166411e+01
3.803646e+00
5.844761e+01
2.059544e+01
5.881283e+01
2.096067e+01
2.173358e+01
3.760531e+00
2.190981e+01
3.936763e+00
5.893942e+01
2.083210e+01
5.934641e+01
2.123909e+01
2.198755e+01
3.888439e+00
2.218427e+01
4.085165e+00
5.948653e+01
2.109673e+01
5.993630e+01
2.154650e+01
2.227047e+01
4.031508e+00
2.248832e+01
4.249359e+00
6.009016e+01
2.139011e+01
6.058383e+01
2.188377e+01
2.258318e+01
4.190236e+00
2.282287e+01
4.429925e+00
6.075164e+01
2.171312e+01
6.129040e+01
2.225188e+01
2.292661e+01
4.365193e+00
2.318897e+01
4.627547e+00
6.147234e+01
2.206676e+01
6.205750e+01
2.265192e+01
2.330182e+01
4.557045e+00
2.358778e+01
4.843004e+00
6.225371e+01
2.245215e+01
6.288665e+01
2.308510e+01
2.370999e+01
4.766561e+00
2.402064e+01
5.077210e+00
6.309721e+01
2.287054e+01
6.377940e+01
2.355273e+01
2.415245e+01
4.994646e+00
2.448903e+01
5.331226e+00
6.400430e+01
2.332335e+01
6.473724e+01
2.405629e+01
2.463068e+01
5.242357e+00
2.499464e+01
5.606316e+00
6.497632e+01
2.381217e+01
6.576155e+01
2.459740e+01
2.514636e+01
5.510947e+00
2.553937e+01
5.903964e+00
6.601445e+01
2.433881e+01
6.685350e+01
2.517786e+01
2.570138e+01
5.801903e+00
2.612543e+01
6.225956e+00
6.711958e+01
2.490532e+01
6.801389e+01
2.579964e+01
2.629788e+01
6.117022e+00
2.675531e+01
6.574452e+00
6.829212e+01
2.551405e+01
6.924301e+01
2.646494e+01
2.693830e+01
6.458468e+00
2.743192e+01
6.952082e+00
6.953180e+01
2.616772e+01
7.054032e+01
2.717624e+01
2.762545e+01
6.828902e+00
2.815865e+01
7.362094e+00
7.083736e+01
2.686948e+01
7.190416e+01
2.793628e+01
2.836259e+01
7.231612e+00
2.893950e+01
7.808530e+00
7.220611e+01
2.762305e+01
7.333122e+01
2.874816e+01
2.915349e+01
7.670700e+00
2.977926e+01
8.296478e+00
7.363340e+01
2.843285e+01
7.481596e+01
2.961541e+01
3.000262e+01
8.151348e+00
3.068368e+01
8.832407e+00
7.511182e+01
2.930421e+01
7.634968e+01
3.054207e+01
3.091532e+01
8.680163e+00
3.165977e+01
9.424614e+00
7.663027e+01
3.024361e+01
7.791945e+01
3.153278e+01
3.189797e+01
9.265648e+00
3.271620e+01
1.008388e+01
7.817260e+01
3.125900e+01
7.950655e+01
3.259295e+01
3.295827e+01
9.918908e+00
3.386372e+01
1.082436e+01
7.971590e+01
3.236020e+01
8.108451e+01
3.372882e+01
3.410555e+01
1.065462e+01
3.511579e+01
1.166486e+01
8.122842e+01
3.355938e+01
8.261671e+01
3.494767e+01
3.535097e+01
1.149255e+01
3.648927e+01
1.263086e+01
8.266693e+01
3.487151e+01
8.405335e+01
3.625793e+01
3.670752e+01
1.245994e+01
3.800521e+01
1.375763e+01
8.397364e+01
3.631497e+01
8.532828e+01
3.766960e+01
3.818922e+01
1.359562e+01
3.968933e+01
1.509573e+01
8.507276e+01
3.791243e+01
8.635622e+01
3.919588e+01
3.980835e+01
1.495785e+01
4.157208e+01
1.672159e+01
8.586669e+01
3.969367e+01
8.703246e+01
4.085943e+01
4.156733e+01
1.664055e+01
4.368746e+01
1.876068e+01
8.623101e+01
4.170604e+01
8.724024e+01
4.271527e+01
4.343800e+01
1.881185e+01
4.607162e+01
2.144548e+01
8.600933e+01
4.404827e+01
8.688877e+01
4.492771e+01
4.532681e+01
2.179330e+01
4.878505e+01
2.525154e+01
8.493669e+01
4.702715e+01
8.595727e+01
4.804772e+01
4.684742e+01
2.658597e+01
5.166674e+01
3.140528e+01
8.342020e+01
5.098690e+01
8.459164e+01
5.215834e+01
4.905630e+01
3.423755e+01
5.327934e+01
3.846059e+01
8.286378e+01
5.392696e+01
8.406563e+01
5.512882e+01
5.239887e+01
3.848500e+01
5.500043e+01
4.108656e+01
8.327012e+01
5.588030e+01
8.483867e+01
5.744885e+01
5.477054e+01
4.120384e+01
5.712844e+01
4.356173e+01
8.454692e+01
5.771822e+01
8.641691e+01
5.958821e+01
5.706512e+01
4.358370e+01
5.923710e+01
4.575567e+01
8.643278e+01
5.955695e+01
8.853009e+01
6.165425e+01
5.932287e+01
4.568749e+01
6.133600e+01
4.770062e+01
8.873629e+01
6.141965e+01
9.098300e+01
6.366636e+01
6.152955e+01
4.756268e+01
6.339951e+01
4.943264e+01
9.131673e+01
6.329046e+01
9.364721e+01
6.562095e+01
6.367409e+01
4.924188e+01
6.541355e+01
5.098133e+01
9.406719e+01
6.514777e+01
9.642738e+01
6.750795e+01
6.574519e+01
5.075330e+01
6.736382e+01
5.237192e+01
9.690434e+01
6.697045e+01
9.925038e+01
6.931649e+01
6.773256e+01
5.212000e+01
6.923777e+01
5.362522e+01
9.976211e+01
6.874023e+01
1.020587e+02
7.103686e+01
6.962731e+01
5.336046e+01
7.102483e+01
5.475798e+01
1.025878e+02
7.044206e+01
1.048068e+02
7.266111e+01
7.142216e+01
5.448922e+01
7.271642e+01
5.578349e+01
1.053391e+02
7.206389e+01
1.074582e+02
7.418301e+01
7.311134e+01
5.551757e+01
7.430588e+01
5.671211e+01
1.079824e+02
7.359630e+01
1.099840e+02
7.559790e+01
7.469045e+01
5.645428e+01
7.578808e+01
5.755191e+01
1.104909e+02
7.503199e+01
1.123613e+02
7.690235e+01
7.615618e+01
5.730614e+01
7.715923e+01
5.830919e+01
1.128434e+02
7.636540e+01
1.145720e+02
7.809395e+01
7.750618e+01
5.807841e+01
7.841657e+01
5.898880e+01
1.150234e+02
7.759240e+01
1.166021e+02
7.917105e+01
7.873881e+01
5.877521e+01
7.955817e+01
5.959457e+01
1.170181e+02
7.870994e+01
1.184407e+02
8.013261e+01
7.985300e+01
5.939975e+01
8.058271e+01
6.012946e+01
1.188175e+02
7.971582e+01
1.200797e+02
8.097799e+01
8.084812e+01
5.995456e+01
8.148936e+01
6.059580e+01
1.204143e+02
8.060851e+01
1.215127e+02
8.170688e+01
8.172386e+01
6.044165e+01
8.227764e+01
6.099543e+01
1.218029e+02
8.138697e+01
1.227351e+02
8.231918e+01
8.248011e+01
6.086259e+01
8.294729e+01
6.132977e+01
1.229791e+02
8.205052e+01
1.237435e+02
8.281492e+01
8.311695e+01
6.121865e+01
8.349822e+01
6.159993e+01
1.239401e+02
8.259874e+01
1.245356e+02
8.319420e+01
8.363450e+01
6.151079e+01
8.393046e+01
6.180675e+01
1.246838e+02
8.303138e+01
1.251095e+02
8.345716e+01
8.403297e+01
6.173978e+01
8.424405e+01
6.195086e+01
1.252087e+02
8.334831e+01
1.254643e+02
8.360394e+01
8.431251e+01
6.190616e+01
8.443904e+01
6.203268e+01
1.255140e+02
8.354942e+01
1.255992e+02
8.363466e+01
8.447331e+01
6.201031e+01
8.451546e+01
6.205247e+01
</DataArray>
<DataArray type="Float32" Name="V2" format="ascii">
5.055467e-01
5.397500e-01
5.062154e-01
5.404028e-01
5.397500e-01
5.800000e-01
5.404028e-01
5.806365e-01
5.062154e-01
5.404028e-01
5.082143e-01
5.423600e-01
5.404028e-01
5.806365e-01
5.423600e-01
5.825452e-01
5.082143e-01
5.423600e-01
5.115423e-01
5.456188e-01
5.423600e-01
5.825452e-01
5.456188e-01
5.857232e-01
5.115423e-01
5.456188e-01
5.161947e-01
5.501742e-01
5.456188e-01
5.857232e-01
5.501742e-01
5.901658e-01
5.161947e-01
5.501742e-01
5.221644e-01
5.560196e-01
5.501742e-01
5.901658e-01
5.560196e-01
5.958663e-01
5.221644e-01
5.560196e-01
5.294426e-01
5.631462e-01
5.560196e-01
5.958663e-01
5.631462e-01
6.028163e-01
5.294426e-01
5.631462e-01
5.380183e-01
5.715433e-01
5.631462e-01
6.028163e-01
5.715433e-01
6.110054e-01
5.380183e-01
5.715433e-01
5.478786e-01
5.811985e-01
5.715433e-01
6.110054e-01
5.811985e-01
6.204214e-01
5.478786e-01
5.811985e-01
5.590089e-01
5.920973e-01
5.811985e-01
6.204214e-01
5.920973e-01
6.310502e-01
5.590089e-01
5.920973e-01
5.713925e-01
6.042233e-01
5.920973e-01
6.310502e-01
6.042233e-01
6.428759e-01
5.713925e-01
6.042233e-01
5.850105e-01
6.175584e-01
6.042233e-01
6.428759e-01
6.175584e-01
6.558808e-01
5.850105e-01
6.175584e-01
5.998426e-01
6.320825e-01
6.175584e-01
6.558808e-01
6.320825e-01
6.700453e-01
5.998426e-01
6.320825e-01
6.158663e-01
6.477737e-01
6.320825e-01
6.700453e-01
6.477737e-01
6.853482e-01
6.158663e-01
6.477737e-01
6.330572e-01
6.646084e-01
6.477737e-01
6.853482e-01
6.646084e-01
7.017663e-01
6.330572e-01
6.646084e-01
6.513893e-01
6.825611e-01
6.646084e-01
7.017663e-01
6.825611e-01
7.192750e-01
6.513893e-01
6.825611e-01
6.708345e-01
7.016046e-01
6.825611e-01
7.192750e-01
7.016046e-01
7.378477e-01
6.708345e-01
7.016046e-01
6.913631e-01
7.217099e-01
7.016046e-01
7.378477e-01
7.217099e-01
7.574563e-01
6.913631e-01
7.217099e-01
7.129433e-01
7.428464e-01
7.217099e-01
7.574563e-01
7.428464e-01
7.780712e-01
7.129433e-01
7.428464e-01
7.355418e-01
7.649819e-01
7.428464e-01
7.780712e-01
7.649819e-01
7.996611e-01
7.355418e-01
7.649819e-01
7.591234e-01
7.880824e-01
7.649819e-01
7.996611e-01
7.880824e-01
8.221932e-01
7.591234e-01
7.880824e-01
7.836511e-01
8.121126e-01
7.880824e-01
8.221932e-01
8.121126e-01
8.456336e-01
7.836511e-01
8.121126e-01
8.090861e-01
8.370355e-01
8.121126e-01
8.456336e-01
8.370355e-01
8.699469e-01
8.090861e-01
8.370355e-01
8.353879e-01
8.628129e-01
8.370355e-01
8.699469e-01
8.628129e-01
8.950965e-01
8.353879e-01
8.628129e-01
8.625139e-01
8.894051e-01
8.628129e-01
8.950965e-01
8.894051e-01
9.210450e-01
8.625139e-01
8.894051e-01
8.904197e-01
9.167711e-01
8.894051e-01
9.210450e-01
9.167711e-01
9.477542e-01
8.904197e-01
9.167711e-01
9.190589e-01
9.448690e-01
9.167711e-01
9.477542e-01
9.448690e-01
9.751854e-01
9.190589e-01
9.448690e-01
9.483829e-01
9.736556e-01
9.448690e-01
9.751854e-01
9.736556e-01
1.003300e+00
9.483829e-01
9.736556e-01
9.783405e-01
1.003087e+00
9.736556e-01
1.003300e+00
1.003087e+00
1.032059e+00
9.783405e-01
1.003087e+00
1.008878e+00
1.033118e+00
1.003087e+00
1.032059e+00
1.033118e+00
1.061424e+00
1.008878e+00
1.033118e+00
1.039937e+00
1.063704e+00
1.033118e+00
1.061424e+00
1.063704e+00
1.091360e+00
1.039937e+00
1.063704e+00
1.071457e+00
1.094799e+00
1.063704e+00
1.091360e+00
1.094799e+00
1.121834e+00
1.071457e+00
1.094799e+00
1.103372e+00
1.126354e+00
1.094799e+00
1.121834e+00
1.126354e+00
1.152814e+00
1.103372e+00
1.126354e+00
1.135606e+00
1.158321e+00
1.126354e+00
1.152814e+00
1.158321e+00
1.184277e+00
1.135606e+00
1.158321e+00
1.168077e+00
1.190646e+00
1.158321e+00
1.184277e+00
1.190646e+00
1.216205e+00
1.168077e+00
1.190646e+00
1.200682e+00
1.223263e+00
1.190646e+00
1.216205e+00
1.223263e+00
1.248588e+00
1.200682e+00
1.223263e+00
1.233290e+00
1.256070e+00
1.223263e+00
1.248588e+00
1.256070e+00
1.281415e+00
1.233290e+00
1.256070e+00
1.265689e+00
1.288873e+00
1.256070e+00
1.281415e+00
1.288873e+00
1.314645e+00
1.265689e+00
1.288873e+00
1.297583e+00
1.321307e+00
1.288873e+00
1.314645e+00
1.321307e+00
1.347945e+00
1.297583e+00
1.321307e+00
1.328389e+00
1.352490e+00
1.321307e+00
1.347945e+00
1.352490e+00
1.379347e+00
1.328389e+00
1.352490e+00
1.357381e+00
1.381763e+00
1.352490e+00
1.379347e+00
1.381763e+00
1.408822e+00
1.357381e+00
1.381763e+00
1.384525e+00
1.409368e+00
1.381763e+00
1.408822e+00
1.409368e+00
1.436816e+00
1.384525e+00
1.409368e+00
1.409906e+00
1.435297e+00
1.409368e+00
1.436816e+00
1.435297e+00
1.463221e+00
1.409906e+00
1.435297e+00
1.433617e+00
1.459572e+00
1.435297e+00
1.463221e+00
1.459572e+00
1.488012e+00
1.433617e+00
1.459572e+00
1.455733e+00
1.482230e+00
1.459572e+00
1.488012e+00
1.482230e+00
1.511189e+00
1.455733e+00
1.482230e+00
1.476325e+00
1.503319e+00
1.482230e+00
1.511189e+00
1.503319e+00
1.532776e+00
1.476325e+00
1.503319e+00
1.495458e+00
1.522896e+00
1.503319e+00
1.532776e+00
1.522896e+00
1.552815e+00
1.495458e+00
1.522896e+00
1.513192e+00
1.541017e+00
1.522896e+00
1.552815e+00
1.541017e+00
1.571355e+00
1.513192e+00
1.541017e+00
1.529582e+00
1.557742e+00
1.541017e+00
1.571355e+00
1.557742e+00
1.588453e+00
1.529582e+00
1.557742e+00
1.544682e+00
1.573126e+00
1.557742e+00
1.588453e+00
1.573126e+00
1.604163e+00
1.544682e+00
1.573126e+00
1.558540e+00
1.587222e+00
1.573126e+00
1.604163e+00
1.587222e+00
1.618543e+00
1.558540e+00
1.587222e+00
1.571200e+00
1.600081e+00
1.587222e+00
1.618543e+00
1.600081e+00
1.631645e+00
1.571200e+00
1.600081e+00
1.582704e+00
1.611749e+00
1.600081e+00
1.631645e+00
1.611749e+00
1.643519e+00
1.582704e+00
1.611749e+00
1.593088e+00
1.622268e+00
1.611749e+00
1.643519e+00
1.622268e+00
1.654211e+00
1.593088e+00
1.622268e+00
1.602387e+00
1.631675e+00
1.622268e+00
1.654211e+00
1.631675e+00
1.663764e+00
1.602387e+00
1.631675e+00
1.610629e+00
1.640005e+00
1.631675e+00
1.663764e+00
1.640005e+00
1.672215e+00
1.610629e+00
1.640005e+00
1.617841e+00
1.647287e+00
1.640005e+00
1.672215e+00
1.647287e+00
1.679596e+00
1.617841e+00
1.647287e+00
1.624046e+00
1.653548e+00
1.647287e+00
1.679596e+00
1.653548e+00
1.685936e+00
1.624046e+00
1.653548e+00
1.629264e+00
1.658809e+00
1.653548e+00
1.685936e+00
1.658809e+00
1.691261e+00
1.629264e+00
1.658809e+00
1.633511e+00
1.663088e+00
1.658809e+00
1.691261e+00
1.663088e+00
1.695590e+00
1.633511e+00
1.663088e+00
1.636801e+00
1.666401e+00
1.663088e+00
1.695590e+00
1.666401e+00
1.698940e+00
1.636801e+00
1.666401e+00
1.639143e+00
1.668760e+00
1.666401e+00
1.698940e+00
1.668760e+00
1.701324e+00
1.639143e+00
1.668760e+00
1.640545e+00
1.670172e+00
1.668760e+00
1.701324e+00
1.670172e+00
1.702751e+00
1.640545e+00
1.670172e+00
1.641013e+00
1.670642e+00
1.670172e+00
1.702751e+00
1.670642e+00
1.703226e+00
</DataArray>
<DataArray type="Float32" Name="V3" format="ascii">
0.000000e+00
0.000000e+00
2.017168e-02
1.930532e-02
0.000000e+00
0.000000e+00
1.930532e-02
1.829363e-02
2.017168e-02
1.930532e-02
4.028834e-02
3.855653e-02
1.930532e-02
1.829363e-02
3.855653e-02
3.653427e-02
4.028834e-02
3.855653e-02
6.029469e-02
5.769952e-02
3.855653e-02
3.653427e-02
5.769952e-02
5.466907e-02
6.029469e-02
5.769952e-02
8.013578e-02
7.668033e-02
5.769952e-02
5.466907e-02
7.668033e-02
7.264522e-02
8.013578e-02
7.668033e-02
9.975683e-02
9.544519e-02
7.668033e-02
7.264522e-02
9.544519e-02
9.041014e-02
9.975683e-02
9.544519e-02
1.191033e-01
1.139406e-01
9.544519e-02
9.041014e-02
1.139406e-01
1.079115e-01
1.191033e-01
1.139406e-01
1.381210e-01
1.321133e-01
1.139406e-01
1.079115e-01
1.321133e-01
1.250972e-01
1.381210e-01
1.321133e-01
1.567560e-01
1.499105e-01
1.321133e-01
1.250972e-01
1.499105e-01
1.419155e-01
1.567560e-01
1.499105e-01
1.749550e-01
1.672797e-01
1.499105e-01
1.419155e-01
1.672797e-01
1.583154e-01
1.749550e-01
1.672797e-01
1.926651e-01
1.841692e-01
1.672797e-01
1.583154e-01
1.841692e-01
1.742459e-01
1.926651e-01
1.841692e-01
2.098339e-01
2.005275e-01
1.841692e-01
1.742459e-01
2.005275e-01
1.896569e-01
2.098339e-01
2.005275e-01
2.264098e-01
2.163039e-01
2.005275e-01
1.896569e-01
2.163039e-01
2.044988e-01
2.264098e-01
2.163039e-01
2.423417e-01
2.314484e-01
2.163039e-01
2.044988e-01
2.314484e-01
2.187227e-01
2.423417e-01
2.314484e-01
2.575794e-01
2.459116e-01
2.314484e-01
2.187227e-01
2.459116e-01
2.322805e-01
2.575794e-01
2.459116e-01
2.720732e-01
2.596452e-01
2.459116e-01
2.322805e-01
2.596452e-01
2.451249e-01
2.720732e-01
2.596452e-01
2.857746e-01
2.726013e-01
2.596452e-01
2.451249e-01
2.726013e-01
2.572093e-01
2.857746e-01
2.726013e-01
2.986358e-01
2.847333e-01
2.726013e-01
2.572093e-01
2.847333e-01
2.684885e-01
2.986358e-01
2.847333e-01
3.106099e-01
2.959954e-01
2.847333e-01
2.684885e-01
2.959954e-01
2.789178e-01
3.106099e-01
2.959954e-01
3.216510e-01
3.063430e-01
2.959954e-01
2.789178e-01
3.063430e-01
2.884541e-01
3.216510e-01
3.063430e-01
3.317143e-01
3.157323e-01
3.063430e-01
2.884541e-01
3.157323e-01
2.970552e-01
3.317143e-01
3.157323e-01
3.407560e-01
3.241208e-01
3.157323e-01
2.970552e-01
3.241208e-01
3.046804e-01
3.407560e-01
3.241208e-01
3.487331e-01
3.314673e-01
3.241208e-01
3.046804e-01
3.314673e-01
3.112903e-01
3.487331e-01
3.314673e-01
3.556040e-01
3.377316e-01
3.314673e-01
3.112903e-01
3.377316e-01
3.168472e-01
3.556040e-01
3.377316e-01
3.613278e-01
3.428750e-01
3.377316e-01
3.168472e-01
3.428750e-01
3.213149e-01
3.613278e-01
3.428750e-01
3.658648e-01
3.468600e-01
3.428750e-01
3.213149e-01
3.468600e-01
3.246591e-01
3.658648e-01
3.468600e-01
3.691762e-01
3.496504e-01
3.468600e-01
3.246591e-01
3.496504e-01
3.268476e-01
3.691762e-01
3.496504e-01
3.712239e-01
3.512114e-01
3.496504e-01
3.268476e-01
3.512114e-01
3.278503e-01
3.712239e-01
3.512114e-01
3.719708e-01
3.515098e-01
3.512114e-01
3.278503e-01
3.515098e-01
3.276396e-01
3.719708e-01
3.515098e-01
3.713802e-01
3.505135e-01
3.515098e-01
3.276396e-01
3.505135e-01
3.261909e-01
3.713802e-01
3.505135e-01
3.694159e-01
3.481918e-01
3.505135e-01
3.261909e-01
3.481918e-01
3.234823e-01
3.694159e-01
3.481918e-01
3.660421e-01
3.445153e-01
3.481918e-01
3.234823e-01
3.445153e-01
3.194957e-01
3.660421e-01
3.445153e-01
3.612233e-01
3.394560e-01
3.445153e-01
3.194957e-01
3.394560e-01
3.142169e-01
3.612233e-01
3.394560e-01
3.549246e-01
3.329868e-01
3.394560e-01
3.142169e-01
3.329868e-01
3.076361e-01
3.549246e-01
3.329868e-01
3.471129e-01
3.250822e-01
3.329868e-01
3.076361e-01
3.250822e-01
2.997486e-01
3.471129e-01
3.250822e-01
3.377603e-01
3.157203e-01
3.250822e-01
2.997486e-01
3.157203e-01
2.905535e-01
3.377603e-01
3.157203e-01
3.268555e-01
3.048906e-01
3.157203e-01
2.905535e-01
3.048906e-01
2.800465e-01
3.268555e-01
3.048906e-01
3.144419e-01
2.926241e-01
3.048906e-01
2.800465e-01
2.926241e-01
2.681971e-01
3.144419e-01
2.926241e-01
3.006853e-01
2.790404e-01
2.926241e-01
2.681971e-01
2.790404e-01
2.547660e-01
3.006853e-01
2.790404e-01
2.863493e-01
2.650413e-01
2.790404e-01
2.547660e-01
2.650413e-01
2.410186e-01
2.863493e-01
2.650413e-01
2.723012e-01
2.516324e-01
2.650413e-01
2.410186e-01
2.516324e-01
2.287180e-01
2.723012e-01
2.516324e-01
2.587308e-01
2.388970e-01
2.516324e-01
2.287180e-01
2.388970e-01
2.171739e-01
2.587308e-01
2.388970e-01
2.456206e-01
2.267571e-01
2.388970e-01
2.171739e-01
2.267571e-01
2.062520e-01
2.456206e-01
2.267571e-01
2.328961e-01
2.150871e-01
2.267571e-01
2.062520e-01
2.150871e-01
1.958170e-01
2.328961e-01
2.150871e-01
2.204894e-01
2.037818e-01
2.150871e-01
1.958170e-01
2.037818e-01
1.857527e-01
2.204894e-01
2.037818e-01
2.083387e-01
1.927515e-01
2.037818e-01
1.857527e-01
1.927515e-01
1.759574e-01
2.083387e-01
1.927515e-01
1.963900e-01
1.819218e-01
1.927515e-01
1.759574e-01
1.819218e-01
1.663455e-01
1.963900e-01
1.819218e-01
1.845973e-01
1.712317e-01
1.819218e-01
1.663455e-01
1.712317e-01
1.568465e-01
1.845973e-01
1.712317e-01
1.729215e-01
1.606320e-01
1.712317e-01
1.568465e-01
1.606320e-01
1.474041e-01
1.729215e-01
1.606320e-01
1.613303e-01
1.500834e-01
1.606320e-01
1.474041e-01
1.500834e-01
1.379745e-01
1.613303e-01
1.500834e-01
1.497970e-01
1.395555e-01
1.500834e-01
1.379745e-01
1.395555e-01
1.285244e-01
1.497970e-01
1.395555e-01
1.383004e-01
1.290251e-01
1.395555e-01
1.285244e-01
1.290251e-01
1.190298e-01
1.383004e-01
1.290251e-01
1.268232e-01
1.184751e-01
1.290251e-01
1.190298e-01
1.184751e-01
1.094741e-01
1.268232e-01
1.184751e-01
1.153526e-01
1.078937e-01
1.184751e-01
1.094741e-01
1.078937e-01
9.984696e-02
1.153526e-01
1.078937e-01
1.038788e-01
9.727323e-02
1.078937e-01
9.984696e-02
9.727323e-02
9.014317e-02
1.038788e-01
9.727323e-02
9.239512e-02
8.660964e-02
9.727323e-02
9.014317e-02
8.660964e-02
8.036159e-02
9.239512e-02
8.660964e-02
8.089713e-02
7.590175e-02
8.660964e-02
8.036159e-02
7.590175e-02
7.050438e-02
8.089713e-02
7.590175e-02
6.938259e-02
6.515073e-02
7.590175e-02
7.050438e-02
6.515073e-02
6.057634e-02
6.938259e-02
6.515073e-02
5.785094e-02
5.435965e-02
6.515073e-02
6.057634e-02
5.435965e-02
5.058436e-02
5.785094e-02
5.435965e-02
4.630305e-02
4.353312e-02
5.435965e-02
5.058436e-02
4.353312e-02
4.053693e-02
4.630305e-02
4.353312e-02
3.474088e-02
3.267691e-02
4.353312e-02
4.053693e-02
3.267691e-02
3.044381e-02
3.474088e-02
3.267691e-02
2.316726e-02
2.179771e-02
3.267691e-02
3.044381e-02
2.179771e-02
2.031566e-02
2.316726e-02
2.179771e-02
1.158567e-02
1.090282e-02
2.179771e-02
2.031566e-02
1.090282e-02
1.016380e-02
1.158567e-02
1.090282e-02
0.000000e+00
0.000000e+00
1.090282e-02
1.016380e-02
0.000000e+00
0.000000e+00
</DataArray>
<DataArray type="Float32" Name="V4" format="ascii">
8.500000e-01
9.250000e-01
8.500000e-01
9.250000e-01
9.250000e-01
1.000000e+00