<?xml version="1.0"?>
<VTKFile type="UnstructuredGrid" version="0.1" byte_order="LittleEndian" compressor="vtkZLibDataCompressor">
<UnstructuredGrid>
<Piece NumberOfPoints="504" NumberOfCells="126">
<Points>
<DataArray type="Float32" NumberOfComponents="3" format="ascii">
0.000000e+00 7.263652e-01 0.000000e+00
0.000000e+00 7.739512e-01 0.000000e+00
2.780545e-02 7.263772e-01 0.000000e+00
2.777550e-02 7.739575e-01 0.000000e+00
0.000000e+00 7.739512e-01 0.000000e+00
0.000000e+00 8.300000e-01 0.000000e+00
2.777550e-02 7.739575e-01 0.000000e+00
2.776349e-02 8.300000e-01 0.000000e+00
2.780545e-02 7.263772e-01 0.000000e+00
2.777550e-02 7.739575e-01 0.000000e+00
5.561065e-02 7.264098e-01 0.000000e+00
5.555103e-02 7.739761e-01 0.000000e+00
2.777550e-02 7.739575e-01 0.000000e+00
2.776349e-02 8.300000e-01 0.000000e+00
5.555103e-02 7.739761e-01 0.000000e+00
5.552735e-02 8.300000e-01 0.000000e+00
5.561065e-02 7.264098e-01 0.000000e+00
5.555103e-02 7.739761e-01 0.000000e+00
8.341505e-02 7.264644e-01 0.000000e+00
8.332668e-02 7.740073e-01 0.000000e+00
5.555103e-02 7.739761e-01 0.000000e+00
5.552735e-02 8.300000e-01 0.000000e+00
8.332668e-02 7.740073e-01 0.000000e+00
8.329207e-02 8.300000e-01 0.000000e+00
8.341505e-02 7.264644e-01 0.000000e+00
8.332668e-02 7.740073e-01 0.000000e+00
1.112182e-01 7.265411e-01 0.000000e+00
1.111025e-01 7.740512e-01 0.000000e+00
8.332668e-02 7.740073e-01 0.000000e+00
8.329207e-02 8.300000e-01 0.000000e+00
1.111025e-01 7.740512e-01 0.000000e+00
1.110582e-01 8.300000e-01 0.000000e+00
1.112182e-01 7.265411e-01 0.000000e+00
1.111025e-01 7.740512e-01 0.000000e+00
1.390196e-01 7.266401e-01 0.000000e+00
1.388787e-01 7.741084e-01 0.000000e+00
1.111025e-01 7.740512e-01 0.000000e+00
1.110582e-01 8.300000e-01 0.000000e+00
1.388787e-01 7.741084e-01 0.000000e+00
1.388266e-01 8.300000e-01 0.000000e+00
1.390196e-01 7.266401e-01 0.000000e+00
1.388787e-01 7.741084e-01 0.000000e+00
1.668185e-01 7.267618e-01 0.000000e+00
1.666555e-01 7.741795e-01 0.000000e+00
1.388787e-01 7.741084e-01 0.000000e+00
1.388266e-01 8.300000e-01 0.000000e+00
1.666555e-01 7.741795e-01 0.000000e+00
1.665983e-01 8.300000e-01 0.000000e+00
1.668185e-01 7.267618e-01 0.000000e+00
1.666555e-01 7.741795e-01 0.000000e+00
1.946139e-01 7.269068e-01 0.000000e+00
1.944332e-01 7.742651e-01 0.000000e+00
1.666555e-01 7.741795e-01 0.000000e+00
1.665983e-01 8.300000e-01 0.000000e+00
1.944332e-01 7.742651e-01 0.000000e+00
1.943747e-01 8.300000e-01 0.000000e+00
1.946139e-01 7.269068e-01 0.000000e+00
1.944332e-01 7.742651e-01 0.000000e+00
2.224045e-01 7.270758e-01 0.000000e+00
2.222124e-01 7.743665e-01 0.000000e+00
1.944332e-01 7.742651e-01 0.000000e+00
1.943747e-01 8.300000e-01 0.000000e+00
2.222124e-01 7.743665e-01 0.000000e+00
2.221580e-01 8.300000e-01 0.000000e+00
2.224045e-01 7.270758e-01 0.000000e+00
2.222124e-01 7.743665e-01 0.000000e+00
2.501884e-01 7.272696e-01 0.000000e+00
2.499936e-01 7.744851e-01 0.000000e+00
2.222124e-01 7.743665e-01 0.000000e+00
2.221580e-01 8.300000e-01 0.000000e+00
2.499936e-01 7.744851e-01 0.000000e+00
2.499508e-01 8.300000e-01 0.000000e+00
2.501884e-01 7.272696e-01 0.000000e+00
2.499936e-01 7.744851e-01 0.000000e+00
2.779633e-01 7.274894e-01 0.000000e+00
2.777779e-01 7.746227e-01 0.000000e+00
2.499936e-01 7.744851e-01 0.000000e+00
2.499508e-01 8.300000e-01 0.000000e+00
2.777779e-01 7.746227e-01 0.000000e+00
2.777571e-01 8.300000e-01 0.000000e+00
2.779633e-01 7.274894e-01 0.000000e+00
2.777779e-01 7.746227e-01 0.000000e+00
3.057256e-01 7.277365e-01 0.000000e+00
3.055666e-01 7.747817e-01 0.000000e+00
2.777779e-01 7.746227e-01 0.000000e+00
2.777571e-01 8.300000e-01 0.000000e+00
3.055666e-01 7.747817e-01 0.000000e+00
3.055820e-01 8.300000e-01 0.000000e+00
3.057256e-01 7.277365e-01 0.000000e+00
3.055666e-01 7.747817e-01 0.000000e+00
3.334709e-01 7.280124e-01 0.000000e+00
3.333614e-01 7.749651e-01 0.000000e+00
3.055666e-01 7.747817e-01 0.000000e+00
3.055820e-01 8.300000e-01 0.000000e+00
3.333614e-01 7.749651e-01 0.000000e+00
3.334323e-01 8.300000e-01 0.000000e+00
3.334709e-01 7.280124e-01 0.000000e+00
3.333614e-01 7.749651e-01 0.000000e+00
3.611928e-01 7.283187e-01 0.000000e+00
3.611644e-01 7.751765e-01 0.000000e+00
3.333614e-01 7.749651e-01 0.000000e+00
3.334323e-01 8.300000e-01 0.000000e+00
3.611644e-01 7.751765e-01 0.000000e+00
3.613171e-01 8.300000e-01 0.000000e+00
3.611928e-01 7.283187e-01 0.000000e+00
3.611644e-01 7.751765e-01 0.000000e+00
3.888825e-01 7.286566e-01 0.000000e+00
3.889782e-01 7.754198e-01 0.000000e+00
3.611644e-01 7.751765e-01 0.000000e+00
3.613171e-01 8.300000e-01 0.000000e+00
3.889782e-01 7.754198e-01 0.000000e+00
3.892479e-01 8.300000e-01 0.000000e+00
3.888825e-01 7.286566e-01 0.000000e+00
3.889782e-01 7.754198e-01 0.000000e+00
4.165283e-01 7.290267e-01 0.000000e+00
4.168059e-01 7.756995e-01 0.000000e+00
3.889782e-01 7.754198e-01 0.000000e+00
3.892479e-01 8.300000e-01 0.000000e+00
4.168059e-01 7.756995e-01 0.000000e+00
4.172398e-01 8.300000e-01 0.000000e+00
4.165283e-01 7.290267e-01 0.000000e+00
4.168059e-01 7.756995e-01 0.000000e+00
4.441145e-01 7.294276e-01 0.000000e+00
4.446503e-01 7.760195e-01 0.000000e+00
4.168059e-01 7.756995e-01 0.000000e+00
4.172398e-01 8.300000e-01 0.000000e+00
4.446503e-01 7.760195e-01 0.000000e+00
4.453111e-01 8.300000e-01 0.000000e+00
4.441145e-01 7.294276e-01 0.000000e+00
4.446503e-01 7.760195e-01 0.000000e+00
4.716198e-01 7.298545e-01 0.000000e+00
4.725137e-01 7.763822e-01 0.000000e+00
4.446503e-01 7.760195e-01 0.000000e+00
4.453111e-01 8.300000e-01 0.000000e+00
4.725137e-01 7.763822e-01 0.000000e+00
4.734844e-01 8.300000e-01 0.000000e+00
4.716198e-01 7.298545e-01 0.000000e+00
4.725137e-01 7.763822e-01 0.000000e+00
4.990167e-01 7.302962e-01 0.000000e+00
5.003955e-01 7.767863e-01 0.000000e+00
4.725137e-01 7.763822e-01 0.000000e+00
4.734844e-01 8.300000e-01 0.000000e+00
5.003955e-01 7.767863e-01 0.000000e+00
5.017856e-01 8.300000e-01 0.000000e+00
4.990167e-01 7.302962e-01 0.000000e+00
5.003955e-01 7.767863e-01 0.000000e+00
5.262693e-01 7.307304e-01 0.000000e+00
5.282892e-01 7.772218e-01 0.000000e+00
5.003955e-01 7.767863e-01 0.000000e+00
5.017856e-01 8.300000e-01 0.000000e+00
5.282892e-01 7.772218e-01 0.000000e+00
5.302429e-01 8.300000e-01 0.000000e+00
5.262693e-01 7.307304e-01 0.000000e+00
5.282892e-01 7.772218e-01 0.000000e+00
5.533328e-01 7.311158e-01 0.000000e+00
5.561754e-01 7.776622e-01 0.000000e+00
5.282892e-01 7.772218e-01 0.000000e+00
5.302429e-01 8.300000e-01 0.000000e+00
5.561754e-01 7.776622e-01 0.000000e+00
5.588820e-01 8.300000e-01 0.000000e+00
5.533328e-01 7.311158e-01 0.000000e+00
5.561754e-01 7.776622e-01 0.000000e+00
5.801517e-01 7.313782e-01 0.000000e+00
5.840092e-01 7.780473e-01 0.000000e+00
5.561754e-01 7.776622e-01 0.000000e+00
5.588820e-01 8.300000e-01 0.000000e+00
5.840092e-01 7.780473e-01 0.000000e+00
5.877173e-01 8.300000e-01 0.000000e+00
5.801517e-01 7.313782e-01 0.000000e+00
5.840092e-01 7.780473e-01 0.000000e+00
6.066571e-01 7.313870e-01 0.000000e+00
6.116984e-01 7.782459e-01 0.000000e+00
5.840092e-01 7.780473e-01 0.000000e+00
5.877173e-01 8.300000e-01 0.000000e+00
6.116984e-01 7.782459e-01 0.000000e+00
6.167363e-01 8.300000e-01 0.000000e+00
6.066571e-01 7.313870e-01 0.000000e+00
6.116984e-01 7.782459e-01 0.000000e+00
6.327667e-01 7.309227e-01 0.000000e+00
6.391076e-01 7.780004e-01 0.000000e+00
6.116984e-01 7.782459e-01 0.000000e+00
6.167363e-01 8.300000e-01 0.000000e+00
6.391076e-01 7.780004e-01 0.000000e+00
6.458167e-01 8.300000e-01 0.000000e+00
6.327667e-01 7.309227e-01 0.000000e+00
6.391076e-01 7.780004e-01 0.000000e+00
6.585151e-01 7.296714e-01 0.000000e+00
6.662833e-01 7.768515e-01 0.000000e+00
6.391076e-01 7.780004e-01 0.000000e+00
6.458167e-01 8.300000e-01 0.000000e+00
6.662833e-01 7.768515e-01 0.000000e+00
6.744391e-01 8.289938e-01 0.000000e+00
6.585151e-01 7.296714e-01 0.000000e+00
6.662833e-01 7.768515e-01 0.000000e+00
6.838082e-01 7.272482e-01 0.000000e+00
6.930891e-01 7.742179e-01 0.000000e+00
6.662833e-01 7.768515e-01 0.000000e+00
6.744391e-01 8.289938e-01 0.000000e+00
6.930891e-01 7.742179e-01 0.000000e+00
7.030556e-01 8.254350e-01 0.000000e+00
6.838082e-01 7.272482e-01 0.000000e+00
6.930891e-01 7.742179e-01 0.000000e+00
7.086893e-01 7.235222e-01 0.000000e+00
7.196726e-01 7.700781e-01 0.000000e+00
6.930891e-01 7.742179e-01 0.000000e+00
7.030556e-01 8.254350e-01 0.000000e+00
7.196726e-01 7.700781e-01 0.000000e+00
7.316509e-01 8.203077e-01 0.000000e+00
7.086893e-01 7.235222e-01 0.000000e+00
7.196726e-01 7.700781e-01 0.000000e+00
7.331849e-01 7.184296e-01 0.000000e+00
7.460223e-01 7.643999e-01 0.000000e+00
7.196726e-01 7.700781e-01 0.000000e+00
7.316509e-01 8.203077e-01 0.000000e+00
7.460223e-01 7.643999e-01 0.000000e+00
7.600493e-01 8.136159e-01 0.000000e+00
7.331849e-01 7.184296e-01 0.000000e+00
7.460223e-01 7.643999e-01 0.000000e+00
7.572954e-01 7.120064e-01 0.000000e+00
7.720647e-01 7.572510e-01 0.000000e+00
7.460223e-01 7.643999e-01 0.000000e+00
7.600493e-01 8.136159e-01 0.000000e+00
7.720647e-01 7.572510e-01 0.000000e+00
7.881449e-01 8.054265e-01 0.000000e+00
7.572954e-01 7.120064e-01 0.000000e+00
7.720647e-01 7.572510e-01 0.000000e+00
7.810077e-01 7.042970e-01 0.000000e+00
7.977219e-01 7.486941e-01 0.000000e+00
7.720647e-01 7.572510e-01 0.000000e+00
7.881449e-01 8.054265e-01 0.000000e+00
7.977219e-01 7.486941e-01 0.000000e+00
8.158347e-01 7.957923e-01 0.000000e+00
7.810077e-01 7.042970e-01 0.000000e+00
7.977219e-01 7.486941e-01 0.000000e+00
8.042995e-01 6.953530e-01 0.000000e+00
8.229281e-01 7.387975e-01 0.000000e+00
7.977219e-01 7.486941e-01 0.000000e+00
8.158347e-01 7.957923e-01 0.000000e+00
8.229281e-01 7.387975e-01 0.000000e+00
8.430325e-01 7.847752e-01 0.000000e+00
8.042995e-01 6.953530e-01 0.000000e+00
8.229281e-01 7.387975e-01 0.000000e+00
8.271440e-01 6.852270e-01 0.000000e+00
8.476290e-01 7.276301e-01 0.000000e+00
8.229281e-01 7.387975e-01 0.000000e+00
8.430325e-01 7.847752e-01 0.000000e+00
8.476290e-01 7.276301e-01 0.000000e+00
8.696669e-01 7.724425e-01 0.000000e+00
8.271440e-01 6.852270e-01 0.000000e+00
[...]
<PointData>
<DataArray type="Float32" Name="V1" format="ascii">
1.519978e+01
5.380870e+00
1.520631e+01
5.387396e+00
5.685510e+00
5.796667e-01
5.689210e+00
5.833674e-01
1.520936e+01
5.383978e+00
1.522590e+01
5.400518e+00
5.690984e+00
5.823066e-01
5.700300e+00
5.916225e-01
1.523269e+01
5.393880e+00
1.526037e+01
5.421553e+00
5.703945e+00
5.895788e-01
5.719684e+00
6.053180e-01
1.527033e+01
5.411627e+00
1.530907e+01
5.450366e+00
5.725041e+00
6.021352e-01
5.747268e+00
6.243622e-01
1.532207e+01
5.437289e+00
1.537176e+01
5.486976e+00
5.754346e+00
6.200471e-01
5.783174e+00
6.488749e-01
1.538757e+01
5.470984e+00
1.544803e+01
5.531443e+00
5.791966e+00
6.434286e-01
5.827576e+00
6.790385e-01
1.546628e+01
5.512885e+00
1.553724e+01
5.583844e+00
5.838055e+00
6.724562e-01
5.880713e+00
7.151134e-01
1.555739e+01
5.563237e+00
1.563845e+01
5.644289e+00
5.892828e+00
7.073917e-01
5.942915e+00
7.574784e-01
1.565972e+01
5.622384e+00
1.575026e+01
5.712928e+00
5.956573e+00
7.486209e-01
6.014635e+00
8.066832e-01
1.577151e+01
5.690817e+00
1.587068e+01
5.789984e+00
6.029684e+00
7.967059e-01
6.096501e+00
8.635228e-01
1.589028e+01
5.769230e+00
1.599684e+01
5.875789e+00
6.112699e+00
8.524617e-01
6.189384e+00
9.291467e-01
1.601248e+01
5.858612e+00
1.612471e+01
5.970846e+00
6.206355e+00
9.170784e-01
6.294501e+00
1.005224e+00
1.613318e+01
5.960370e+00
1.624874e+01
6.075932e+00
6.311670e+00
9.922866e-01
6.413556e+00
1.094174e+00
1.624562e+01
6.076497e+00
1.636136e+01
6.192230e+00
6.430038e+00
1.080615e+00
6.548937e+00
1.199514e+00
1.634068e+01
6.209786e+00
1.645242e+01
6.321531e+00
6.563366e+00
1.185777e+00
6.703974e+00
1.326385e+00
1.640630e+01
6.364094e+00
1.650869e+01
6.466489e+00
6.714205e+00
1.313276e+00
6.883296e+00
1.482367e+00
1.642703e+01
6.544606e+00
1.651338e+01
6.630957e+00
6.885873e+00
1.471386e+00
7.093268e+00
1.678780e+00
1.638381e+01
6.758029e+00
1.644616e+01
6.820384e+00
7.082452e+00
1.672795e+00
7.342534e+00
1.932877e+00
1.625449e+01
7.012570e+00
1.628422e+01
7.042304e+00
7.308463e+00
1.937527e+00
7.642605e+00
2.271669e+00
1.601585e+01
7.317467e+00
1.600540e+01
7.307020e+00
7.567745e+00
2.298264e+00
8.008297e+00
2.738817e+00
1.564827e+01
7.682293e+00
1.559495e+01
7.628977e+00
7.860263e+00
2.810711e+00
8.456851e+00
3.407299e+00
1.514574e+01
8.116317e+00
1.505715e+01
8.027724e+00
8.172940e+00
3.573525e+00
9.002581e+00
4.403165e+00
1.452340e+01
8.634666e+00
1.442965e+01
8.540910e+00
8.417406e+00
4.808791e+00
9.584801e+00
5.976186e+00
1.380813e+01
9.321583e+00
1.375475e+01
9.268195e+00
8.520998e+00
7.018115e+00
9.656593e+00
8.153710e+00
1.327063e+01
9.800822e+00
1.323700e+01
9.767197e+00
9.324509e+00
8.229921e+00
9.847151e+00
8.752564e+00
1.290886e+01
1.010880e+01
1.294203e+01
1.014197e+01
9.776242e+00
8.778441e+00
1.019926e+01
9.201456e+00
1.273126e+01
1.036207e+01
1.282287e+01
1.045368e+01
1.011360e+01
9.246590e+00
1.047386e+01
9.606852e+00
1.270261e+01
1.058515e+01
1.284925e+01
1.073178e+01
1.041584e+01
9.641122e+00
1.073433e+01
9.959608e+00
1.278402e+01
1.080514e+01
1.297278e+01
1.099390e+01
1.069976e+01
9.980520e+00
1.098483e+01
1.026559e+01
1.294442e+01
1.102625e+01
1.316290e+01
1.124473e+01
1.097201e+01
1.027266e+01
1.122904e+01
1.052969e+01
1.316007e+01
1.124784e+01
1.339810e+01
1.148586e+01
1.123394e+01
1.052496e+01
1.146689e+01
1.075791e+01
1.341363e+01
1.146769e+01
1.366328e+01
1.171734e+01
1.148547e+01
1.074394e+01
1.169756e+01
1.095603e+01
1.369220e+01
1.168363e+01
1.394738e+01
1.193881e+01
1.172618e+01
1.093529e+01
1.192005e+01
1.112916e+01
1.398604e+01
1.189389e+01
1.424211e+01
1.214996e+01
1.195572e+01
1.110373e+01
1.213357e+01
1.128158e+01
1.428772e+01
1.209715e+01
1.454119e+01
1.235061e+01
1.217392e+01
1.125313e+01
1.233757e+01
1.141679e+01
1.459156e+01
1.229249e+01
1.483980e+01
1.254073e+01
1.238076e+01
1.138658e+01
1.253176e+01
1.153757e+01
1.489321e+01
1.247933e+01
1.513429e+01
1.272040e+01
1.257639e+01
1.150658e+01
1.271601e+01
1.164619e+01
1.518938e+01
1.265732e+01
1.542191e+01
1.288985e+01
1.276103e+01
1.161512e+01
1.289035e+01
1.174444e+01
1.547759e+01
1.282631e+01
1.570060e+01
1.304932e+01
1.293499e+01
1.171379e+01
1.305493e+01
1.183373e+01
1.575602e+01
1.298630e+01
1.596886e+01
1.319914e+01
1.309862e+01
1.180389e+01
1.320996e+01
1.191523e+01
1.602336e+01
1.313736e+01
1.622564e+01
1.333964e+01
1.325228e+01
1.188646e+01
1.335569e+01
1.198987e+01
1.627872e+01
1.327967e+01
1.647023e+01
1.347118e+01
1.339636e+01
1.196233e+01
1.349242e+01
1.205839e+01
1.652150e+01
1.341341e+01
1.670219e+01
1.359410e+01
1.353124e+01
1.203220e+01
1.362045e+01
1.212142e+01
1.675137e+01
1.353885e+01
1.692128e+01
1.370876e+01
1.365729e+01
1.209665e+01
1.374010e+01
1.217946e+01
1.696816e+01
1.365622e+01
1.712743e+01
1.381549e+01
1.377488e+01
1.215614e+01
1.385168e+01
1.223293e+01
1.717186e+01
1.376581e+01
1.732067e+01
1.391462e+01
1.388437e+01
1.221107e+01
1.395548e+01
1.228218e+01
1.736255e+01
1.386786e+01
1.750112e+01
1.400643e+01
1.398608e+01
1.226177e+01
1.405181e+01
1.232750e+01
1.754041e+01
1.396266e+01
1.766898e+01
1.409123e+01
1.408032e+01
1.230852e+01
1.414094e+01
1.236915e+01
1.770565e+01
1.405045e+01
1.782447e+01
1.416927e+01
1.416739e+01
1.235158e+01
1.422314e+01
1.240733e+01
1.785851e+01
1.413148e+01
1.796784e+01
1.424081e+01
1.424756e+01
1.239113e+01
1.429866e+01
1.244222e+01
1.799926e+01
1.420598e+01
1.809937e+01
1.430608e+01
1.432109e+01
1.242736e+01
1.436772e+01
1.247399e+01
1.812819e+01
1.427416e+01
1.821931e+01
1.436528e+01
1.438822e+01
1.246043e+01
1.443054e+01
1.250275e+01
1.824556e+01
1.433625e+01
1.832793e+01
1.441861e+01
1.444914e+01
1.249046e+01
1.448732e+01
1.252864e+01
1.835164e+01
1.439241e+01
1.842548e+01
1.446624e+01
1.450407e+01
1.251759e+01
1.453824e+01
1.255175e+01
1.844670e+01
1.444282e+01
1.851221e+01
1.450833e+01
1.455318e+01
1.254189e+01
1.458345e+01
1.257216e+01
1.853096e+01
1.448764e+01
1.858832e+01
1.454500e+01
1.459663e+01
1.256348e+01
1.462310e+01
1.258995e+01
1.860464e+01
1.452700e+01
1.865402e+01
1.457638e+01
1.463455e+01
1.258241e+01
1.465731e+01
1.260518e+01
1.866795e+01
1.456104e+01
1.870949e+01
1.460258e+01
1.466706e+01
1.259877e+01
1.468620e+01
1.261790e+01
1.872105e+01
1.458985e+01
1.875486e+01
1.462367e+01
1.469428e+01
1.261259e+01
1.470985e+01
1.262816e+01
1.876408e+01
1.461352e+01
1.879028e+01
1.463972e+01
1.471629e+01
1.262393e+01
1.472835e+01
1.263599e+01
1.879717e+01
1.463214e+01
1.881583e+01
1.465079e+01
1.473316e+01
1.263283e+01
1.474174e+01
1.264142e+01
1.882042e+01
1.464575e+01
1.883159e+01
1.465692e+01
1.474494e+01
1.263932e+01
1.475008e+01
1.264446e+01
1.883388e+01
1.465440e+01
1.883760e+01
1.465812e+01
1.475168e+01
1.264341e+01
1.475339e+01
1.264512e+01
</DataArray>
<DataArray type="Float32" Name="V2" format="ascii">
7.263652e-01
7.739512e-01
7.268446e-01
7.744094e-01
7.739512e-01
8.300000e-01
7.744094e-01
8.304342e-01
7.268446e-01
7.744094e-01
7.282788e-01
7.757830e-01
7.744094e-01
8.304342e-01
7.757830e-01
8.317361e-01
7.282788e-01
7.757830e-01
7.306667e-01
7.780700e-01
7.757830e-01
8.317361e-01
7.780700e-01
8.339036e-01
7.306667e-01
7.780700e-01
7.340045e-01
7.812670e-01
7.780700e-01
8.339036e-01
7.812670e-01
8.369334e-01
7.340045e-01
7.812670e-01
7.382870e-01
7.853694e-01
7.812670e-01
8.369334e-01
7.853694e-01
8.408208e-01
7.382870e-01
7.853694e-01
7.435075e-01
7.903712e-01
7.853694e-01
8.408208e-01
7.903712e-01
8.455598e-01
7.435075e-01
7.903712e-01
7.496578e-01
7.962653e-01
7.903712e-01
8.455598e-01
7.962653e-01
8.511433e-01
7.496578e-01
7.962653e-01
7.567282e-01
8.030433e-01
7.962653e-01
8.511433e-01
8.030433e-01
8.575629e-01
7.567282e-01
8.030433e-01
7.647076e-01
8.106959e-01
8.030433e-01
8.575629e-01
8.106959e-01
8.648095e-01
7.647076e-01
8.106959e-01
7.735829e-01
8.192130e-01
8.106959e-01
8.648095e-01
8.192130e-01
8.728728e-01
7.735829e-01
8.192130e-01
7.833396e-01
8.285834e-01
8.192130e-01
8.728728e-01
8.285834e-01
8.817421e-01
7.833396e-01
8.285834e-01
7.939611e-01
8.387956e-01
8.285834e-01
8.817421e-01
8.387956e-01
8.914063e-01
7.939611e-01
8.387956e-01
8.054283e-01
8.498370e-01
8.387956e-01
8.914063e-01
8.498370e-01
9.018544e-01
8.054283e-01
8.498370e-01
8.177189e-01
8.616947e-01
8.498370e-01
9.018544e-01
8.616947e-01
9.130755e-01
8.177189e-01
8.616947e-01
8.308067e-01
8.743546e-01
8.616947e-01
9.130755e-01
8.743546e-01
9.250600e-01
8.308067e-01
8.743546e-01
8.446597e-01
8.878011e-01
8.743546e-01
9.250600e-01
8.878011e-01
9.377996e-01
8.446597e-01
8.878011e-01
8.592378e-01
9.020157e-01
8.878011e-01
9.377996e-01
9.020157e-01
9.512879e-01
8.592378e-01
9.020157e-01
8.744893e-01
9.169737e-01
9.020157e-01
9.512879e-01
9.169737e-01
9.655208e-01
8.744893e-01
9.169737e-01
8.903461e-01
9.326389e-01
9.169737e-01
9.655208e-01
9.326389e-01
9.804961e-01
8.903461e-01
9.326389e-01
9.067153e-01
9.489528e-01
9.326389e-01
9.804961e-01
9.489528e-01
9.962114e-01
9.067153e-01
9.489528e-01
9.234680e-01
9.658133e-01
9.489528e-01
9.962114e-01
9.658133e-01
1.012660e+00
9.234680e-01
9.658133e-01
9.404182e-01
9.830312e-01
9.658133e-01
1.012660e+00
9.830312e-01
1.029819e+00
9.404182e-01
9.830312e-01
9.572992e-01
1.000286e+00
9.830312e-01
1.029819e+00
1.000286e+00
1.047607e+00
9.572992e-01
1.000286e+00
9.738376e-01
1.017196e+00
1.000286e+00
1.047607e+00
1.017196e+00
1.064872e+00
9.738376e-01
1.017196e+00
9.896492e-01
1.033203e+00
1.017196e+00
1.064872e+00
1.033203e+00
1.080606e+00
9.896492e-01
1.033203e+00
1.004653e+00
1.048396e+00
1.033203e+00
1.080606e+00
1.048396e+00
1.095668e+00
1.004653e+00
1.048396e+00
1.018824e+00
1.062769e+00
1.048396e+00
1.095668e+00
1.062769e+00
1.109994e+00
1.018824e+00
1.062769e+00
1.032209e+00
1.076362e+00
1.062769e+00
1.109994e+00
1.076362e+00
1.123602e+00
1.032209e+00
1.076362e+00
1.044850e+00
1.089198e+00
1.076362e+00
1.123602e+00
1.089198e+00
1.136496e+00
1.044850e+00
1.089198e+00
1.056792e+00
1.101310e+00
1.089198e+00
1.136496e+00
1.101310e+00
1.148689e+00
1.056792e+00
1.101310e+00
1.068074e+00
1.112732e+00
1.101310e+00
1.148689e+00
1.112732e+00
1.160199e+00
1.068074e+00
1.112732e+00
1.078730e+00
1.123499e+00
1.112732e+00
1.160199e+00
1.123499e+00
1.171055e+00
1.078730e+00
1.123499e+00
1.088794e+00
1.133646e+00
1.123499e+00
1.171055e+00
1.133646e+00
1.181284e+00
1.088794e+00
1.133646e+00
1.098298e+00
1.143207e+00
1.133646e+00
1.181284e+00
1.143207e+00
1.190918e+00
1.098298e+00
1.143207e+00
1.107270e+00
1.152215e+00
1.143207e+00
1.190918e+00
1.152215e+00
1.199988e+00
1.107270e+00
1.152215e+00
1.115737e+00
1.160700e+00
1.152215e+00
1.199988e+00
1.160700e+00
1.208523e+00
1.115737e+00
1.160700e+00
1.123724e+00
1.168690e+00
1.160700e+00
1.208523e+00
1.168690e+00
1.216553e+00
1.123724e+00
1.168690e+00
1.131256e+00
1.176211e+00
1.168690e+00
1.216553e+00
1.176211e+00
1.224105e+00
1.131256e+00
1.176211e+00
1.138354e+00
1.183289e+00
1.176211e+00
1.224105e+00
1.183289e+00
1.231205e+00
1.138354e+00
1.183289e+00
1.145038e+00
1.189946e+00
1.183289e+00
1.231205e+00
1.189946e+00
1.237875e+00
1.145038e+00
1.189946e+00
1.151327e+00
1.196201e+00
1.189946e+00
1.237875e+00
1.196201e+00
1.244137e+00
1.151327e+00
1.196201e+00
1.157237e+00
1.202075e+00
1.196201e+00
1.244137e+00
1.202075e+00
1.250012e+00
1.157237e+00
1.202075e+00
1.162786e+00
1.207584e+00
1.202075e+00
1.250012e+00
1.207584e+00
1.255517e+00
1.162786e+00
1.207584e+00
1.167987e+00
1.212743e+00
1.207584e+00
1.255517e+00
1.212743e+00
1.260670e+00
1.167987e+00
1.212743e+00
1.172854e+00
1.217567e+00
1.212743e+00
1.260670e+00
1.217567e+00
1.265484e+00
1.172854e+00
1.217567e+00
1.177399e+00
1.222070e+00
1.217567e+00
1.265484e+00
1.222070e+00
1.269974e+00
1.177399e+00
1.222070e+00
1.181633e+00
1.226262e+00
1.222070e+00
1.269974e+00
1.226262e+00
1.274153e+00
1.181633e+00
1.226262e+00
1.185566e+00
1.230154e+00
1.226262e+00
1.274153e+00
1.230154e+00
1.278030e+00
1.185566e+00
1.230154e+00
1.189207e+00
1.233756e+00
1.230154e+00
1.278030e+00
1.233756e+00
1.281617e+00
1.189207e+00
1.233756e+00
1.192565e+00
1.237076e+00
1.233756e+00
1.281617e+00
1.237076e+00
1.284921e+00
1.192565e+00
1.237076e+00
1.195647e+00
1.240122e+00
1.237076e+00
1.284921e+00
1.240122e+00
1.287952e+00
1.195647e+00
1.240122e+00
1.198459e+00
1.242902e+00
1.240122e+00
1.287952e+00
1.242902e+00
1.290717e+00
1.198459e+00
1.242902e+00
1.201008e+00
1.245420e+00
1.242902e+00
1.290717e+00
1.245420e+00
1.293221e+00
1.201008e+00
1.245420e+00
1.203299e+00
1.247684e+00
1.245420e+00
1.293221e+00
1.247684e+00
1.295471e+00
1.203299e+00
1.247684e+00
1.205337e+00
1.249697e+00
1.247684e+00
1.295471e+00
1.249697e+00
1.297471e+00
1.205337e+00
1.249697e+00
1.207126e+00
1.251463e+00
1.249697e+00
1.297471e+00
1.251463e+00
1.299226e+00
1.207126e+00
1.251463e+00
1.208669e+00
1.252987e+00
1.251463e+00
1.299226e+00
1.252987e+00
1.300740e+00
1.208669e+00
1.252987e+00
1.209970e+00
1.254271e+00
1.252987e+00
1.300740e+00
1.254271e+00
1.302016e+00
1.209970e+00
1.254271e+00
1.211031e+00
1.255319e+00
1.254271e+00
1.302016e+00
1.255319e+00
1.303056e+00
1.211031e+00
1.255319e+00
1.211854e+00
1.256131e+00
1.255319e+00
1.303056e+00
1.256131e+00
1.303863e+00
1.211854e+00
1.256131e+00
1.212441e+00
1.256711e+00
1.256131e+00
1.303863e+00
1.256711e+00
1.304439e+00
1.212441e+00
1.256711e+00
1.212792e+00
1.257058e+00
1.256711e+00
1.304439e+00
1.257058e+00
1.304783e+00
1.212792e+00
1.257058e+00
1.212909e+00
1.257173e+00
1.257058e+00
1.304783e+00
1.257173e+00
1.304898e+00
</DataArray>
<DataArray type="Float32" Name="V3" format="ascii">
0.000000e+00
0.000000e+00
9.687727e-03
8.471567e-03
0.000000e+00
0.000000e+00
8.471567e-03
7.062384e-03
9.687727e-03
8.471567e-03
1.933298e-02
1.690245e-02
8.471567e-03
7.062384e-03
1.690245e-02
1.408624e-02
1.933298e-02
1.690245e-02
2.889306e-02
2.525205e-02
1.690245e-02
1.408624e-02
2.525205e-02
2.103319e-02
2.889306e-02
2.525205e-02
3.832545e-02
3.347983e-02
2.525205e-02
2.103319e-02
3.347983e-02
2.786505e-02
3.832545e-02
3.347983e-02
4.758763e-02
4.154542e-02
3.347983e-02
2.786505e-02
4.154542e-02
3.454394e-02
4.758763e-02
4.154542e-02
5.663708e-02
4.940866e-02
4.154542e-02
3.454394e-02
4.940866e-02
4.103244e-02
5.663708e-02
4.940866e-02
6.543124e-02
5.702963e-02
4.940866e-02
4.103244e-02
5.702963e-02
4.729374e-02
6.543124e-02
5.702963e-02
7.392748e-02
6.436870e-02
5.702963e-02
4.729374e-02
6.436870e-02
5.329182e-02
7.392748e-02
6.436870e-02
8.208295e-02
7.138660e-02
6.436870e-02
5.329182e-02
7.138660e-02
5.899166e-02
8.208295e-02
7.138660e-02
8.985450e-02
7.804440e-02
7.138660e-02
5.899166e-02
7.804440e-02
6.435948e-02
8.985450e-02
7.804440e-02
9.719844e-02
8.430359e-02
7.804440e-02
6.435948e-02
8.430359e-02
6.936306e-02
9.719844e-02
8.430359e-02
1.040704e-01
9.012609e-02
8.430359e-02
6.936306e-02
9.012609e-02
7.397207e-02
1.040704e-01
9.012609e-02
1.104247e-01
9.547424e-02
9.012609e-02
7.397207e-02
9.547424e-02
7.815842e-02
1.104247e-01
9.547424e-02
1.162148e-01
1.003108e-01
9.547424e-02
7.815842e-02
1.003108e-01
8.189670e-02
1.162148e-01
1.003108e-01
1.213919e-01
1.045988e-01
1.003108e-01
8.189670e-02
1.045988e-01
8.516451e-02
1.213919e-01
1.045988e-01
1.259059e-01
1.083017e-01
1.045988e-01
8.516451e-02
1.083017e-01
8.794271e-02
1.259059e-01
1.083017e-01
1.297045e-01
1.113830e-01
1.083017e-01
8.794271e-02
1.113830e-01
9.021549e-02
1.297045e-01
1.113830e-01
1.327348e-01
1.138058e-01
1.113830e-01
9.021549e-02
1.138058e-01
9.196972e-02
1.327348e-01
1.138058e-01
1.349452e-01
1.155328e-01
1.138058e-01
9.196972e-02
1.155328e-01
9.319336e-02
1.349452e-01
1.155328e-01
1.362898e-01
1.165252e-01
1.155328e-01
9.319336e-02
1.165252e-01
9.387141e-02
1.362898e-01
1.165252e-01
1.367370e-01
1.167432e-01
1.165252e-01
9.387141e-02
1.167432e-01
9.397813e-02
1.367370e-01
1.167432e-01
1.362841e-01
1.161519e-01
1.167432e-01
9.397813e-02
1.161519e-01
9.346422e-02
1.362841e-01
1.161519e-01
1.349810e-01
1.147658e-01
1.161519e-01
9.346422e-02
1.147658e-01
9.218935e-02
1.349810e-01
1.147658e-01
1.330522e-01
1.128931e-01
1.147658e-01
9.218935e-02
1.128931e-01
9.025895e-02
1.330522e-01
1.128931e-01
1.306834e-01
1.108006e-01
1.128931e-01
9.025895e-02
1.108006e-01
8.899507e-02
1.306834e-01
1.108006e-01
1.280533e-01
1.086979e-01
1.108006e-01
8.899507e-02
1.086979e-01
8.791729e-02
1.280533e-01
1.086979e-01
1.252935e-01
1.066682e-01
1.086979e-01
8.791729e-02
1.066682e-01
8.694926e-02
1.252935e-01
1.066682e-01
1.224530e-01
1.046843e-01
1.066682e-01
8.694926e-02
1.046843e-01
8.603579e-02
1.224530e-01
1.046843e-01
1.195616e-01
1.027166e-01
1.046843e-01
8.603579e-02
1.027166e-01
8.513302e-02
1.195616e-01
1.027166e-01
1.166331e-01
1.007391e-01
1.027166e-01
8.513302e-02
1.007391e-01
8.420386e-02
1.166331e-01
1.007391e-01
1.136742e-01
9.873135e-02
1.007391e-01
8.420386e-02
9.873135e-02
8.321791e-02
1.136742e-01
9.873135e-02
1.106871e-01
9.667765e-02
9.873135e-02
8.321791e-02
9.667765e-02
8.215131e-02
1.106871e-01
9.667765e-02
1.076713e-01
9.456590e-02
9.667765e-02
8.215131e-02
9.456590e-02
8.098608e-02
1.076713e-01
9.456590e-02
1.046253e-01
9.238702e-02
9.456590e-02
8.098608e-02
9.238702e-02
7.970931e-02
1.046253e-01
9.238702e-02
1.015465e-01
9.013431e-02
9.238702e-02
7.970931e-02
9.013431e-02
7.831235e-02
1.015465e-01
9.013431e-02
9.843234e-02
8.780310e-02
9.013431e-02
7.831235e-02
8.780310e-02
7.678995e-02
9.843234e-02
8.780310e-02
9.528032e-02
8.539033e-02
8.780310e-02
7.678995e-02
8.539033e-02
7.513962e-02
9.528032e-02
8.539033e-02
9.208815e-02
8.289435e-02
8.539033e-02
7.513962e-02
8.289435e-02
7.336101e-02
9.208815e-02
8.289435e-02
8.885398e-02
8.031465e-02
8.289435e-02
7.336101e-02
8.031465e-02
7.145543e-02
8.885398e-02
8.031465e-02
8.557636e-02
7.765162e-02
8.031465e-02
7.145543e-02
7.765162e-02
6.942549e-02
8.557636e-02
7.765162e-02
8.225430e-02
7.490643e-02
7.765162e-02
6.942549e-02
7.490643e-02
6.727474e-02
8.225430e-02
7.490643e-02
7.888726e-02
7.208086e-02
7.490643e-02
6.727474e-02
7.208086e-02
6.500746e-02
7.888726e-02
7.208086e-02
7.547514e-02
6.917720e-02
7.208086e-02
6.500746e-02
6.917720e-02
6.262843e-02
7.547514e-02
6.917720e-02
7.201819e-02
6.619811e-02
6.917720e-02
6.262843e-02
6.619811e-02
6.014282e-02
7.201819e-02
6.619811e-02
6.851705e-02
6.314657e-02
6.619811e-02
6.014282e-02
6.314657e-02
5.755601e-02
6.851705e-02
6.314657e-02
6.497267e-02
6.002582e-02
6.314657e-02
5.755601e-02
6.002582e-02
5.487355e-02
6.497267e-02
6.002582e-02
6.138631e-02
5.683928e-02
6.002582e-02
5.487355e-02
5.683928e-02
5.210109e-02
6.138631e-02
5.683928e-02
5.775946e-02
5.359052e-02
5.683928e-02
5.210109e-02
5.359052e-02
4.924428e-02
5.775946e-02
5.359052e-02
5.409383e-02
5.028321e-02
5.359052e-02
4.924428e-02
5.028321e-02
4.630880e-02
5.409383e-02
5.028321e-02
5.039134e-02
4.692113e-02
5.028321e-02
4.630880e-02
4.692113e-02
4.330028e-02
5.039134e-02
4.692113e-02
4.665407e-02
4.350809e-02
4.692113e-02
4.330028e-02
4.350809e-02
4.022431e-02
4.665407e-02
4.350809e-02
4.288426e-02
4.004796e-02
4.350809e-02
4.022431e-02
4.004796e-02
3.708642e-02
4.288426e-02
4.004796e-02
3.908425e-02
3.654464e-02
4.004796e-02
3.708642e-02
3.654464e-02
3.389207e-02
3.908425e-02
3.654464e-02
3.525651e-02
3.300205e-02
3.654464e-02
3.389207e-02
3.300205e-02
3.064665e-02
3.525651e-02
3.300205e-02
3.140358e-02
2.942411e-02
3.300205e-02
3.064665e-02
2.942411e-02
2.735550e-02
3.140358e-02
2.942411e-02
2.752810e-02
2.581476e-02
2.942411e-02
2.735550e-02
2.581476e-02
2.402387e-02
2.752810e-02
2.581476e-02
2.363276e-02
2.217793e-02
2.581476e-02
2.402387e-02
2.217793e-02
2.065696e-02
2.363276e-02
2.217793e-02
1.972030e-02
1.851756e-02
2.217793e-02
2.065696e-02
1.851756e-02
1.725993e-02
1.972030e-02
1.851756e-02
1.579352e-02
1.483757e-02
1.851756e-02
1.725993e-02
1.483757e-02
1.383787e-02
1.579352e-02
1.483757e-02
1.185523e-02
1.114190e-02
1.483757e-02
1.383787e-02
1.114190e-02
1.039583e-02
1.185523e-02
1.114190e-02
7.908304e-03
7.434463e-03
1.114190e-02
1.039583e-02
7.434463e-03
6.938849e-03
7.908304e-03
7.434463e-03
3.955597e-03
3.719191e-03
7.434463e-03
6.938849e-03
3.719191e-03
3.471910e-03
3.955597e-03
3.719191e-03
0.000000e+00
0.000000e+00
3.719191e-03
3.471910e-03
0.000000e+00
0.000000e+00
</DataArray>
<DataArray type="Float32" Name="V4" format="ascii">
8.500000e-01
9.250000e-01
8.500000e-01
9.250000e-01
9.250000e-01
1.000000e+00