<?xml version="1.0"?>
<VTKFile type="UnstructuredGrid" version="0.1" byte_order="LittleEndian" compressor="vtkZLibDataCompressor">
<UnstructuredGrid>
<Piece NumberOfPoints="504" NumberOfCells="126">
<Points>
<DataArray type="Float32" NumberOfComponents="3" format="ascii">
0.000000e+00 4.420748e-01 0.000000e+00
0.000000e+00 4.689459e-01 0.000000e+00
3.698648e-02 4.420829e-01 0.000000e+00
3.698100e-02 4.689482e-01 0.000000e+00
0.000000e+00 4.689459e-01 0.000000e+00
0.000000e+00 5.005469e-01 0.000000e+00
3.698100e-02 4.689482e-01 0.000000e+00
3.697830e-02 5.005469e-01 0.000000e+00
3.698648e-02 4.420829e-01 0.000000e+00
3.698100e-02 4.689482e-01 0.000000e+00
7.397196e-02 4.420974e-01 0.000000e+00
7.396093e-02 4.689560e-01 0.000000e+00
3.698100e-02 4.689482e-01 0.000000e+00
3.697830e-02 5.005469e-01 0.000000e+00
7.396093e-02 4.689560e-01 0.000000e+00
7.395544e-02 5.005469e-01 0.000000e+00
7.397196e-02 4.420974e-01 0.000000e+00
7.396093e-02 4.689560e-01 0.000000e+00
1.109550e-01 4.421214e-01 0.000000e+00
1.109385e-01 4.689691e-01 0.000000e+00
7.396093e-02 4.689560e-01 0.000000e+00
7.395544e-02 5.005469e-01 0.000000e+00
1.109385e-01 4.689691e-01 0.000000e+00
1.109302e-01 5.005469e-01 0.000000e+00
1.109550e-01 4.421214e-01 0.000000e+00
1.109385e-01 4.689691e-01 0.000000e+00
1.479345e-01 4.421551e-01 0.000000e+00
1.479125e-01 4.689873e-01 0.000000e+00
1.109385e-01 4.689691e-01 0.000000e+00
1.109302e-01 5.005469e-01 0.000000e+00
1.479125e-01 4.689873e-01 0.000000e+00
1.479015e-01 5.005469e-01 0.000000e+00
1.479345e-01 4.421551e-01 0.000000e+00
1.479125e-01 4.689873e-01 0.000000e+00
1.849091e-01 4.421983e-01 0.000000e+00
1.848817e-01 4.690107e-01 0.000000e+00
1.479125e-01 4.689873e-01 0.000000e+00
1.479015e-01 5.005469e-01 0.000000e+00
1.848817e-01 4.690107e-01 0.000000e+00
1.848681e-01 5.005469e-01 0.000000e+00
1.849091e-01 4.421983e-01 0.000000e+00
1.848817e-01 4.690107e-01 0.000000e+00
2.218777e-01 4.422511e-01 0.000000e+00
2.218450e-01 4.690393e-01 0.000000e+00
1.848817e-01 4.690107e-01 0.000000e+00
1.848681e-01 5.005469e-01 0.000000e+00
2.218450e-01 4.690393e-01 0.000000e+00
2.218288e-01 5.005469e-01 0.000000e+00
2.218777e-01 4.422511e-01 0.000000e+00
2.218450e-01 4.690393e-01 0.000000e+00
2.588390e-01 4.423134e-01 0.000000e+00
2.588011e-01 4.690730e-01 0.000000e+00
2.218450e-01 4.690393e-01 0.000000e+00
2.218288e-01 5.005469e-01 0.000000e+00
2.588011e-01 4.690730e-01 0.000000e+00
2.587824e-01 5.005469e-01 0.000000e+00
2.588390e-01 4.423134e-01 0.000000e+00
2.588011e-01 4.690730e-01 0.000000e+00
2.957918e-01 4.423851e-01 0.000000e+00
2.957488e-01 4.691119e-01 0.000000e+00
2.588011e-01 4.690730e-01 0.000000e+00
2.587824e-01 5.005469e-01 0.000000e+00
2.957488e-01 4.691119e-01 0.000000e+00
2.957277e-01 5.005469e-01 0.000000e+00
2.957918e-01 4.423851e-01 0.000000e+00
2.957488e-01 4.691119e-01 0.000000e+00
3.327347e-01 4.424663e-01 0.000000e+00
3.326868e-01 4.691558e-01 0.000000e+00
2.957488e-01 4.691119e-01 0.000000e+00
2.957277e-01 5.005469e-01 0.000000e+00
3.326868e-01 4.691558e-01 0.000000e+00
3.326634e-01 5.005469e-01 0.000000e+00
3.327347e-01 4.424663e-01 0.000000e+00
3.326868e-01 4.691558e-01 0.000000e+00
3.696666e-01 4.425568e-01 0.000000e+00
3.696138e-01 4.692049e-01 0.000000e+00
3.326868e-01 4.691558e-01 0.000000e+00
3.326634e-01 5.005469e-01 0.000000e+00
3.696138e-01 4.692049e-01 0.000000e+00
3.695883e-01 5.005469e-01 0.000000e+00
3.696666e-01 4.425568e-01 0.000000e+00
3.696138e-01 4.692049e-01 0.000000e+00
4.065860e-01 4.426565e-01 0.000000e+00
4.065286e-01 4.692589e-01 0.000000e+00
3.696138e-01 4.692049e-01 0.000000e+00
3.695883e-01 5.005469e-01 0.000000e+00
4.065286e-01 4.692589e-01 0.000000e+00
4.065011e-01 5.005469e-01 0.000000e+00
4.065860e-01 4.426565e-01 0.000000e+00
4.065286e-01 4.692589e-01 0.000000e+00
4.434915e-01 4.427655e-01 0.000000e+00
4.434298e-01 4.693180e-01 0.000000e+00
4.065286e-01 4.692589e-01 0.000000e+00
4.065011e-01 5.005469e-01 0.000000e+00
4.434298e-01 4.693180e-01 0.000000e+00
4.434005e-01 5.005469e-01 0.000000e+00
4.434915e-01 4.427655e-01 0.000000e+00
4.434298e-01 4.693180e-01 0.000000e+00
4.803818e-01 4.428836e-01 0.000000e+00
4.803160e-01 4.693820e-01 0.000000e+00
4.434298e-01 4.693180e-01 0.000000e+00
4.434005e-01 5.005469e-01 0.000000e+00
4.803160e-01 4.693820e-01 0.000000e+00
4.802852e-01 5.005469e-01 0.000000e+00
4.803818e-01 4.428836e-01 0.000000e+00
4.803160e-01 4.693820e-01 0.000000e+00
5.172555e-01 4.430108e-01 0.000000e+00
5.171858e-01 4.694509e-01 0.000000e+00
4.803160e-01 4.693820e-01 0.000000e+00
4.802852e-01 5.005469e-01 0.000000e+00
5.171858e-01 4.694509e-01 0.000000e+00
5.171538e-01 5.005469e-01 0.000000e+00
5.172555e-01 4.430108e-01 0.000000e+00
5.171858e-01 4.694509e-01 0.000000e+00
5.541109e-01 4.431469e-01 0.000000e+00
5.540379e-01 4.695247e-01 0.000000e+00
5.171858e-01 4.694509e-01 0.000000e+00
5.171538e-01 5.005469e-01 0.000000e+00
5.540379e-01 4.695247e-01 0.000000e+00
5.540050e-01 5.005469e-01 0.000000e+00
5.541109e-01 4.431469e-01 0.000000e+00
5.540379e-01 4.695247e-01 0.000000e+00
5.909467e-01 4.432918e-01 0.000000e+00
5.908707e-01 4.696034e-01 0.000000e+00
5.540379e-01 4.695247e-01 0.000000e+00
5.540050e-01 5.005469e-01 0.000000e+00
5.908707e-01 4.696034e-01 0.000000e+00
5.908373e-01 5.005469e-01 0.000000e+00
5.909467e-01 4.432918e-01 0.000000e+00
5.908707e-01 4.696034e-01 0.000000e+00
6.277611e-01 4.434455e-01 0.000000e+00
6.276827e-01 4.696868e-01 0.000000e+00
5.908707e-01 4.696034e-01 0.000000e+00
5.908373e-01 5.005469e-01 0.000000e+00
6.276827e-01 4.696868e-01 0.000000e+00
6.276494e-01 5.005469e-01 0.000000e+00
6.277611e-01 4.434455e-01 0.000000e+00
6.276827e-01 4.696868e-01 0.000000e+00
6.645525e-01 4.436079e-01 0.000000e+00
6.644724e-01 4.697750e-01 0.000000e+00
6.276827e-01 4.696868e-01 0.000000e+00
6.276494e-01 5.005469e-01 0.000000e+00
6.644724e-01 4.697750e-01 0.000000e+00
6.644398e-01 5.005469e-01 0.000000e+00
6.645525e-01 4.436079e-01 0.000000e+00
6.644724e-01 4.697750e-01 0.000000e+00
7.013191e-01 4.437788e-01 0.000000e+00
7.012382e-01 4.698679e-01 0.000000e+00
6.644724e-01 4.697750e-01 0.000000e+00
6.644398e-01 5.005469e-01 0.000000e+00
7.012382e-01 4.698679e-01 0.000000e+00
7.012070e-01 5.005469e-01 0.000000e+00
7.013191e-01 4.437788e-01 0.000000e+00
7.012382e-01 4.698679e-01 0.000000e+00
7.380592e-01 4.439581e-01 0.000000e+00
7.379784e-01 4.699655e-01 0.000000e+00
7.012382e-01 4.698679e-01 0.000000e+00
7.012070e-01 5.005469e-01 0.000000e+00
7.379784e-01 4.699655e-01 0.000000e+00
7.379497e-01 5.005469e-01 0.000000e+00
7.380592e-01 4.439581e-01 0.000000e+00
7.379784e-01 4.699655e-01 0.000000e+00
7.747707e-01 4.441457e-01 0.000000e+00
7.746914e-01 4.700677e-01 0.000000e+00
7.379784e-01 4.699655e-01 0.000000e+00
7.379497e-01 5.005469e-01 0.000000e+00
7.746914e-01 4.700677e-01 0.000000e+00
7.746664e-01 5.005469e-01 0.000000e+00
7.747707e-01 4.441457e-01 0.000000e+00
7.746914e-01 4.700677e-01 0.000000e+00
8.114517e-01 4.443416e-01 0.000000e+00
8.113754e-01 4.701746e-01 0.000000e+00
7.746914e-01 4.700677e-01 0.000000e+00
7.746664e-01 5.005469e-01 0.000000e+00
8.113754e-01 4.701746e-01 0.000000e+00
8.113557e-01 5.005469e-01 0.000000e+00
8.114517e-01 4.443416e-01 0.000000e+00
8.113754e-01 4.701746e-01 0.000000e+00
8.480999e-01 4.445455e-01 0.000000e+00
8.480286e-01 4.702860e-01 0.000000e+00
8.113754e-01 4.701746e-01 0.000000e+00
8.113557e-01 5.005469e-01 0.000000e+00
8.480286e-01 4.702860e-01 0.000000e+00
8.480161e-01 5.005469e-01 0.000000e+00
8.480999e-01 4.445455e-01 0.000000e+00
8.480286e-01 4.702860e-01 0.000000e+00
8.847130e-01 4.447575e-01 0.000000e+00
8.846493e-01 4.704022e-01 0.000000e+00
8.480286e-01 4.702860e-01 0.000000e+00
8.480161e-01 5.005469e-01 0.000000e+00
8.846493e-01 4.704022e-01 0.000000e+00
8.846465e-01 5.005469e-01 0.000000e+00
8.847130e-01 4.447575e-01 0.000000e+00
8.846493e-01 4.704022e-01 0.000000e+00
9.212884e-01 4.449773e-01 0.000000e+00
9.212355e-01 4.705230e-01 0.000000e+00
8.846493e-01 4.704022e-01 0.000000e+00
8.846465e-01 5.005469e-01 0.000000e+00
9.212355e-01 4.705230e-01 0.000000e+00
9.212456e-01 5.005469e-01 0.000000e+00
9.212884e-01 4.449773e-01 0.000000e+00
9.212355e-01 4.705230e-01 0.000000e+00
9.578234e-01 4.452050e-01 0.000000e+00
9.577855e-01 4.706486e-01 0.000000e+00
9.212355e-01 4.705230e-01 0.000000e+00
9.212456e-01 5.005469e-01 0.000000e+00
9.577855e-01 4.706486e-01 0.000000e+00
9.578125e-01 5.005469e-01 0.000000e+00
9.578234e-01 4.452050e-01 0.000000e+00
9.577855e-01 4.706486e-01 0.000000e+00
9.943148e-01 4.454404e-01 0.000000e+00
9.942971e-01 4.707790e-01 0.000000e+00
9.577855e-01 4.706486e-01 0.000000e+00
9.578125e-01 5.005469e-01 0.000000e+00
9.942971e-01 4.707790e-01 0.000000e+00
9.943464e-01 5.005469e-01 0.000000e+00
9.943148e-01 4.454404e-01 0.000000e+00
9.942971e-01 4.707790e-01 0.000000e+00
1.030759e+00 4.456835e-01 0.000000e+00
1.030769e+00 4.709145e-01 0.000000e+00
9.942971e-01 4.707790e-01 0.000000e+00
9.943464e-01 5.005469e-01 0.000000e+00
1.030769e+00 4.709145e-01 0.000000e+00
1.030847e+00 5.005469e-01 0.000000e+00
1.030759e+00 4.456835e-01 0.000000e+00
1.030769e+00 4.709145e-01 0.000000e+00
1.067153e+00 4.459344e-01 0.000000e+00
1.067198e+00 4.710553e-01 0.000000e+00
1.030769e+00 4.709145e-01 0.000000e+00
1.030847e+00 5.005469e-01 0.000000e+00
1.067198e+00 4.710553e-01 0.000000e+00
1.067314e+00 5.005469e-01 0.000000e+00
1.067153e+00 4.459344e-01 0.000000e+00
1.067198e+00 4.710553e-01 0.000000e+00
1.103492e+00 4.461929e-01 0.000000e+00
1.103584e+00 4.712017e-01 0.000000e+00
1.067198e+00 4.710553e-01 0.000000e+00
1.067314e+00 5.005469e-01 0.000000e+00
1.103584e+00 4.712017e-01 0.000000e+00
1.103748e+00 5.005469e-01 0.000000e+00
1.103492e+00 4.461929e-01 0.000000e+00
1.103584e+00 4.712017e-01 0.000000e+00
1.139770e+00 4.464592e-01 0.000000e+00
1.139923e+00 4.713541e-01 0.000000e+00
1.103584e+00 4.712017e-01 0.000000e+00
1.103748e+00 5.005469e-01 0.000000e+00
1.139923e+00 4.713541e-01 0.000000e+00
1.140150e+00 5.005469e-01 0.000000e+00
1.139770e+00 4.464592e-01 0.000000e+00
[...]
<PointData>
<DataArray type="Float32" Name="V1" format="ascii">
1.501162e+02
5.686917e+01
1.501727e+02
5.692569e+01
5.923153e+01
1.329820e+01
5.925540e+01
1.332206e+01
1.501949e+02
5.689168e+01
1.503348e+02
5.703160e+01
5.927564e+01
1.331279e+01
5.934096e+01
1.337812e+01
1.503890e+02
5.697095e+01
1.506196e+02
5.720151e+01
5.937953e+01
1.335743e+01
5.949143e+01
1.346934e+01
1.507032e+02
5.711254e+01
1.510253e+02
5.743466e+01
5.954764e+01
1.343652e+01
5.970593e+01
1.359481e+01
1.511382e+02
5.731679e+01
1.515530e+02
5.773159e+01
5.978023e+01
1.355008e+01
5.998513e+01
1.375498e+01
1.516952e+02
5.758432e+01
1.522039e+02
5.809300e+01
6.007783e+01
1.369834e+01
6.032980e+01
1.395031e+01
1.523756e+02
5.791587e+01
1.529795e+02
5.851980e+01
6.044120e+01
1.388170e+01
6.074088e+01
1.418137e+01
1.531810e+02
5.831235e+01
1.538818e+02
5.901313e+01
6.087131e+01
1.410066e+01
6.121948e+01
1.444883e+01
1.541137e+02
5.877483e+01
1.549131e+02
5.957429e+01
6.136928e+01
1.435584e+01
6.176690e+01
1.475346e+01
1.551758e+02
5.930456e+01
1.560760e+02
6.020480e+01
6.193647e+01
1.464797e+01
6.238464e+01
1.509614e+01
1.563701e+02
5.990299e+01
1.573735e+02
6.090638e+01
6.257440e+01
1.497789e+01
6.307440e+01
1.547789e+01
1.576996e+02
6.057176e+01
1.588088e+02
6.168095e+01
6.328484e+01
1.534658e+01
6.383810e+01
1.589984e+01
1.591678e+02
6.131275e+01
1.603857e+02
6.253069e+01
6.406976e+01
1.575515e+01
6.467790e+01
1.636329e+01
1.607783e+02
6.212802e+01
1.621083e+02
6.345798e+01
6.493136e+01
1.620485e+01
6.559620e+01
1.686968e+01
1.625354e+02
6.301992e+01
1.639809e+02
6.446548e+01
6.587211e+01
1.669707e+01
6.659567e+01
1.742063e+01
1.644435e+02
6.399102e+01
1.660086e+02
6.555611e+01
6.689472e+01
1.723341e+01
6.767926e+01
1.801794e+01
1.665075e+02
6.504419e+01
1.681964e+02
6.673307e+01
6.800222e+01
1.781562e+01
6.885025e+01
1.866365e+01
1.687329e+02
6.618257e+01
1.705502e+02
6.799989e+01
6.919793e+01
1.844570e+01
7.011225e+01
1.936002e+01
1.711252e+02
6.740965e+01
1.730760e+02
6.936043e+01
7.048551e+01
1.912586e+01
7.146922e+01
2.010958e+01
1.736906e+02
6.872926e+01
1.757803e+02
7.081891e+01
7.186899e+01
1.985862e+01
7.292558e+01
2.091521e+01
1.764356e+02
7.014563e+01
1.786699e+02
7.237994e+01
7.335281e+01
2.064679e+01
7.448617e+01
2.178014e+01
1.793670e+02
7.166341e+01
1.817521e+02
7.404856e+01
7.494187e+01
2.149356e+01
7.615635e+01
2.270805e+01
1.824917e+02
7.328775e+01
1.850342e+02
7.583029e+01
7.664156e+01
2.240260e+01
7.794210e+01
2.370314e+01
1.858171e+02
7.502433e+01
1.885239e+02
7.773115e+01
7.845785e+01
2.337807e+01
7.985003e+01
2.477025e+01
1.893503e+02
7.687944e+01
1.922286e+02
7.975774e+01
8.039733e+01
2.442480e+01
8.188755e+01
2.591502e+01
1.930985e+02
7.886009e+01
1.961557e+02
8.191730e+01
8.246735e+01
2.554841e+01
8.406296e+01
2.714402e+01
1.970684e+02
8.097413e+01
2.003120e+02
8.421775e+01
8.467611e+01
2.675550e+01
8.638565e+01
2.846505e+01
2.012657e+02
8.323035e+01
2.047031e+02
8.666783e+01
8.703278e+01
2.805392e+01
8.886629e+01
2.988742e+01
2.056948e+02
8.563872e+01
2.093332e+02
8.927714e+01
8.954775e+01
2.945305e+01
9.151708e+01
3.142239e+01
2.103581e+02
8.821055e+01
2.142039e+02
9.205631e+01
9.223277e+01
3.096430e+01
9.435217e+01
3.308370e+01
2.152546e+02
9.095888e+01
2.193129e+02
9.501713e+01
9.510130e+01
3.260163e+01
9.738802e+01
3.488836e+01
2.203789e+02
9.389880e+01
2.246527e+02
9.817268e+01
9.816887e+01
3.438237e+01
1.006441e+02
3.685760e+01
2.257188e+02
9.704796e+01
2.302083e+02
1.015375e+02
1.014535e+02
3.632824e+01
1.041436e+02
3.901831e+01
2.312533e+02
1.004272e+02
2.359540e+02
1.051279e+02
1.049763e+02
3.846687e+01
1.079144e+02
4.140492e+01
2.369488e+02
1.040612e+02
2.418494e+02
1.089618e+02
1.087621e+02
4.083383e+01
1.119904e+02
4.406211e+01
2.427549e+02
1.079795e+02
2.478343e+02
1.130589e+02
1.128402e+02
4.347563e+01
1.164132e+02
4.704868e+01
2.485985e+02
1.122172e+02
2.538217e+02
1.174405e+02
1.172444e+02
4.645418e+01
1.212336e+02
5.044338e+01
2.543765e+02
1.168157e+02
2.596894e+02
1.221286e+02
1.220129e+02
4.985395e+01
1.265130e+02
5.435405e+01
2.599470e+02
1.218235e+02
2.652697e+02
1.271462e+02
1.271841e+02
5.379410e+01
1.323234e+02
5.893345e+01
2.651154e+02
1.273000e+02
2.703381e+02
1.325227e+02
1.327830e+02
5.845197e+01
1.387419e+02
6.441095e+01
2.696093e+02
1.333324e+02
2.746038e+02
1.383269e+02
1.387796e+02
6.411653e+01
1.458352e+02
7.117209e+01
2.730052e+02
1.401191e+02
2.777157e+02
1.448296e+02
1.449765e+02
7.134337e+01
1.536422e+02
8.000906e+01
2.744351e+02
1.483647e+02
2.793346e+02
1.532642e+02
1.506628e+02
8.172825e+01
1.621482e+02
9.321358e+01
2.735459e+02
1.598450e+02
2.795539e+02
1.658530e+02
1.569033e+02
1.004336e+02
1.693435e+02
1.128738e+02
2.755598e+02
1.696428e+02
2.812222e+02
1.753052e+02
1.669585e+02
1.126142e+02
1.749806e+02
1.206364e+02
2.800961e+02
1.763402e+02
2.868983e+02
1.831423e+02
1.747599e+02
1.207019e+02
1.822428e+02
1.281848e+02
2.869808e+02
1.829498e+02
2.945787e+02
1.905477e+02
1.826115e+02
1.278998e+02
1.896354e+02
1.349236e+02
2.953906e+02
1.896277e+02
3.035030e+02
1.977401e+02
1.903942e+02
1.343934e+02
1.969893e+02
1.409885e+02
3.047652e+02
1.963460e+02
3.131420e+02
2.047228e+02
1.980073e+02
1.402897e+02
2.041889e+02
1.464714e+02
3.146855e+02
2.030211e+02
3.231127e+02
2.114482e+02
2.053776e+02
1.456614e+02
2.111533e+02
1.514371e+02
3.248221e+02
2.095609e+02
3.331196e+02
2.178584e+02
2.124418e+02
1.505629e+02
2.178132e+02
1.559343e+02
3.349095e+02
2.158799e+02
3.429281e+02
2.238985e+02
2.191444e+02
1.550343e+02
2.241096e+02
1.599995e+02
3.447319e+02
2.219037e+02
3.523490e+02
2.295209e+02
2.254371e+02
1.591048e+02
2.299921e+02
1.636598e+02
3.541136e+02
2.275699e+02
3.612292e+02
2.346855e+02
2.312793e+02
1.627950e+02
2.354190e+02
1.669346e+02
3.629116e+02
2.328266e+02
3.694449e+02
2.393599e+02
2.366368e+02
1.661191e+02
2.403558e+02
1.698381e+02
3.710103e+02
2.376319e+02
3.768962e+02
2.435178e+02
2.414813e+02
1.690867e+02
2.447747e+02
1.723801e+02
3.783166e+02
2.419516e+02
3.835035e+02
2.471385e+02
2.457900e+02
1.717041e+02
2.486532e+02
1.745673e+02
3.847565e+02
2.457583e+02
3.892039e+02
2.502058e+02
2.495445e+02
1.739755e+02
2.519736e+02
1.764046e+02
3.902718e+02
2.490306e+02
3.939483e+02
2.527071e+02
2.527301e+02
1.759033e+02
2.547218e+02
1.778950e+02
3.948175e+02
2.517515e+02
3.976994e+02
2.546334e+02
2.553356e+02
1.774892e+02
2.568873e+02
1.790409e+02
3.983596e+02
2.539079e+02
4.004296e+02
2.559780e+02
2.573524e+02
1.787337e+02
2.584622e+02
1.798435e+02
4.008736e+02
2.554904e+02
4.021202e+02
2.567369e+02
2.587744e+02
1.796375e+02
2.594408e+02
1.803039e+02
4.023433e+02
2.564920e+02
4.027596e+02
2.569082e+02
2.595976e+02
1.802006e+02
2.598198e+02
1.804228e+02
</DataArray>
<DataArray type="Float32" Name="V2" format="ascii">
4.420748e-01
4.689459e-01
4.428676e-01
4.697244e-01
4.689459e-01
5.005469e-01
4.697244e-01
5.013132e-01
4.428676e-01
4.697244e-01
4.452350e-01
4.720597e-01
4.697244e-01
5.013132e-01
4.720597e-01
5.036111e-01
4.452350e-01
4.720597e-01
4.491768e-01
4.759482e-01
4.720597e-01
5.036111e-01
4.759482e-01
5.074371e-01
4.491768e-01
4.759482e-01
4.546874e-01
4.813841e-01
4.759482e-01
5.074371e-01
4.813841e-01
5.127858e-01
4.546874e-01
4.813841e-01
4.617588e-01
4.883597e-01
4.813841e-01
5.127858e-01
4.883597e-01
5.196495e-01
4.617588e-01
4.883597e-01
4.703807e-01
4.968648e-01
4.883597e-01
5.196495e-01
4.968648e-01
5.280181e-01
4.703807e-01
4.968648e-01
4.805406e-01
5.068871e-01
4.968648e-01
5.280181e-01
5.068871e-01
5.378796e-01
4.805406e-01
5.068871e-01
4.922237e-01
5.184120e-01
5.068871e-01
5.378796e-01
5.184120e-01
5.492196e-01
4.922237e-01
5.184120e-01
5.054132e-01
5.314229e-01
5.184120e-01
5.492196e-01
5.314229e-01
5.620217e-01
5.054132e-01
5.314229e-01
5.200897e-01
5.459007e-01
5.314229e-01
5.620217e-01
5.459007e-01
5.762673e-01
5.200897e-01
5.459007e-01
5.362319e-01
5.618244e-01
5.459007e-01
5.762673e-01
5.618244e-01
5.919355e-01
5.362319e-01
5.618244e-01
5.538161e-01
5.791707e-01
5.618244e-01
5.919355e-01
5.791707e-01
6.090036e-01
5.538161e-01
5.791707e-01
5.728167e-01
5.979142e-01
5.791707e-01
6.090036e-01
5.979142e-01
6.274465e-01
5.728167e-01
5.979142e-01
5.932057e-01
6.180275e-01
5.979142e-01
6.274465e-01
6.180275e-01
6.472373e-01
5.932057e-01
6.180275e-01
6.149532e-01
6.394810e-01
6.180275e-01
6.472373e-01
6.394810e-01
6.683467e-01
6.149532e-01
6.394810e-01
6.380271e-01
6.622431e-01
6.394810e-01
6.683467e-01
6.622431e-01
6.907438e-01
6.380271e-01
6.622431e-01
6.623932e-01
6.862801e-01
6.622431e-01
6.907438e-01
6.862801e-01
7.143955e-01
6.623932e-01
6.862801e-01
6.880154e-01
7.115564e-01
6.862801e-01
7.143955e-01
7.115564e-01
7.392668e-01
6.880154e-01
7.115564e-01
7.148555e-01
7.380345e-01
7.115564e-01
7.392668e-01
7.380345e-01
7.653207e-01
7.148555e-01
7.380345e-01
7.428733e-01
7.656749e-01
7.380345e-01
7.653207e-01
7.656749e-01
7.925185e-01
7.428733e-01
7.656749e-01
7.720268e-01
7.944363e-01
7.656749e-01
7.925185e-01
7.944363e-01
8.208195e-01
7.720268e-01
7.944363e-01
8.022721e-01
8.242754e-01
7.944363e-01
8.208195e-01
8.242754e-01
8.501815e-01
8.022721e-01
8.242754e-01
8.335632e-01
8.551472e-01
8.242754e-01
8.501815e-01
8.551472e-01
8.805604e-01
8.335632e-01
8.551472e-01
8.658524e-01
8.870052e-01
8.551472e-01
8.805604e-01
8.870052e-01
9.119104e-01
8.658524e-01
8.870052e-01
8.990903e-01
9.198009e-01
8.870052e-01
9.119104e-01
9.198009e-01
9.441844e-01
8.990903e-01
9.198009e-01
9.332253e-01
9.534844e-01
9.198009e-01
9.441844e-01
9.534844e-01
9.773336e-01
9.332253e-01
9.534844e-01
9.682045e-01
9.880040e-01
9.534844e-01
9.773336e-01
9.880040e-01
1.011308e+00
9.682045e-01
9.880040e-01
1.003973e+00
1.023307e+00
9.880040e-01
1.011308e+00
1.023307e+00
1.046057e+00
1.003973e+00
1.023307e+00
1.040473e+00
1.059338e+00
1.023307e+00
1.046057e+00
1.059338e+00
1.081527e+00
1.040473e+00
1.059338e+00
1.077647e+00
1.096043e+00
1.059338e+00
1.081527e+00
1.096043e+00
1.117666e+00
1.077647e+00
1.096043e+00
1.115435e+00
1.133363e+00
1.096043e+00
1.117666e+00
1.133363e+00
1.154420e+00
1.115435e+00
1.133363e+00
1.153772e+00
1.171242e+00
1.133363e+00
1.154420e+00
1.171242e+00
1.191734e+00
1.153772e+00
1.171242e+00
1.192594e+00
1.209619e+00
1.171242e+00
1.191734e+00
1.209619e+00
1.229556e+00
1.192594e+00
1.209619e+00
1.231835e+00
1.248435e+00
1.209619e+00
1.229556e+00
1.248435e+00
1.267832e+00
1.231835e+00
1.248435e+00
1.271422e+00
1.287630e+00
1.248435e+00
1.267832e+00
1.287630e+00
1.306510e+00
1.271422e+00
1.287630e+00
1.311282e+00
1.327141e+00
1.287630e+00
1.306510e+00
1.327141e+00
1.345540e+00
1.311282e+00
1.327141e+00
1.351338e+00
1.366908e+00
1.327141e+00
1.345540e+00
1.366908e+00
1.384876e+00
1.351338e+00
1.366908e+00
1.391505e+00
1.406866e+00
1.366908e+00
1.384876e+00
1.406866e+00
1.424478e+00
1.391505e+00
1.406866e+00
1.431694e+00
1.446951e+00
1.406866e+00
1.424478e+00
1.446951e+00
1.464311e+00
1.431694e+00
1.446951e+00
1.471802e+00
1.487095e+00
1.446951e+00
1.464311e+00
1.487095e+00
1.504354e+00
1.471802e+00
1.487095e+00
1.511707e+00
1.527215e+00
1.487095e+00
1.504354e+00
1.527215e+00
1.544602e+00
1.511707e+00
1.527215e+00
1.551239e+00
1.567180e+00
1.527215e+00
1.544602e+00
1.567180e+00
1.585051e+00
1.551239e+00
1.567180e+00
1.590126e+00
1.606693e+00
1.567180e+00
1.585051e+00
1.606693e+00
1.625499e+00
1.590126e+00
1.606693e+00
1.627791e+00
1.644744e+00
1.606693e+00
1.625499e+00
1.644744e+00
1.663760e+00
1.627791e+00
1.644744e+00
1.663038e+00
1.680233e+00
1.644744e+00
1.663760e+00
1.680233e+00
1.699540e+00
1.663038e+00
1.680233e+00
1.695816e+00
1.713493e+00
1.680233e+00
1.699540e+00
1.713493e+00
1.733293e+00
1.695816e+00
1.713493e+00
1.726212e+00
1.744474e+00
1.713493e+00
1.733293e+00
1.744474e+00
1.764857e+00
1.726212e+00
1.744474e+00
1.754307e+00
1.773175e+00
1.744474e+00
1.764857e+00
1.773175e+00
1.794171e+00
1.754307e+00
1.773175e+00
1.780178e+00
1.799628e+00
1.773175e+00
1.794171e+00
1.799628e+00
1.821227e+00
1.780178e+00
1.799628e+00
1.803898e+00
1.823884e+00
1.799628e+00
1.821227e+00
1.823884e+00
1.846051e+00
1.803898e+00
1.823884e+00
1.825539e+00
1.846005e+00
1.823884e+00
1.846051e+00
1.846005e+00
1.868690e+00
1.825539e+00
1.846005e+00
1.845174e+00
1.866059e+00
1.846005e+00
1.868690e+00
1.866059e+00
1.889206e+00
1.845174e+00
1.866059e+00
1.862868e+00
1.884114e+00
1.866059e+00
1.889206e+00
1.884114e+00
1.907664e+00
1.862868e+00
1.884114e+00
1.878684e+00
1.900235e+00
1.884114e+00
1.907664e+00
1.900235e+00
1.924133e+00
1.878684e+00
1.900235e+00
1.892679e+00
1.914487e+00
1.900235e+00
1.924133e+00
1.914487e+00
1.938679e+00
1.892679e+00
1.914487e+00
1.904906e+00
1.926924e+00
1.914487e+00
1.938679e+00
1.926924e+00
1.951362e+00
1.904906e+00
1.926924e+00
1.915409e+00
1.937600e+00
1.926924e+00
1.951362e+00
1.937600e+00
1.962240e+00
1.915409e+00
1.937600e+00
1.924230e+00
1.946557e+00
1.937600e+00
1.962240e+00
1.946557e+00
1.971360e+00
1.924230e+00
1.946557e+00
1.931400e+00
1.953834e+00
1.946557e+00
1.971360e+00
1.953834e+00
1.978765e+00
1.931400e+00
1.953834e+00
1.936949e+00
1.959462e+00
1.953834e+00
1.978765e+00
1.959462e+00
1.984489e+00
1.936949e+00
1.959462e+00
1.940897e+00
1.963465e+00
1.959462e+00
1.984489e+00
1.963465e+00
1.988558e+00
1.940897e+00
1.963465e+00
1.943260e+00
1.965860e+00
1.963465e+00
1.988558e+00
1.965860e+00
1.990992e+00
1.943260e+00
1.965860e+00
1.944046e+00
1.966657e+00
1.965860e+00
1.990992e+00
1.966657e+00
1.991802e+00
</DataArray>
<DataArray type="Float32" Name="V3" format="ascii">
0.000000e+00
0.000000e+00
2.595356e-02
2.527831e-02
0.000000e+00
0.000000e+00
2.527831e-02
2.448783e-02
2.595356e-02
2.527831e-02
5.184328e-02
5.049346e-02
2.527831e-02
2.448783e-02
5.049346e-02
4.891330e-02
5.184328e-02
5.049346e-02
7.760499e-02
7.558217e-02
5.049346e-02
4.891330e-02
7.558217e-02
7.321415e-02
7.760499e-02
7.558217e-02
1.031749e-01
1.004814e-01
7.558217e-02
7.321415e-02
1.004814e-01
9.732821e-02
1.031749e-01
1.004814e-01
1.284895e-01
1.251284e-01
1.004814e-01
9.732821e-02
1.251284e-01
1.211936e-01
1.284895e-01
1.251284e-01
1.534854e-01
1.494605e-01
1.251284e-01
1.211936e-01
1.494605e-01
1.447485e-01
1.534854e-01
1.494605e-01
1.780997e-01
1.734156e-01
1.494605e-01
1.447485e-01
1.734156e-01
1.679319e-01
1.780997e-01
1.734156e-01
2.022701e-01
1.969321e-01
1.734156e-01
1.679319e-01
1.969321e-01
1.906827e-01
2.022701e-01
1.969321e-01
2.259344e-01
2.199486e-01
1.969321e-01
1.906827e-01
2.199486e-01
2.129407e-01
2.259344e-01
2.199486e-01
2.490313e-01
2.424046e-01
2.199486e-01
2.129407e-01
2.424046e-01
2.346460e-01
2.490313e-01
2.424046e-01
2.715002e-01
2.642400e-01
2.424046e-01
2.346460e-01
2.642400e-01
2.557395e-01
2.715002e-01
2.642400e-01
2.932810e-01
2.853955e-01
2.642400e-01
2.557395e-01
2.853955e-01
2.761627e-01
2.932810e-01
2.853955e-01
3.143145e-01
3.058128e-01
2.853955e-01
2.761627e-01
3.058128e-01
2.958580e-01
3.143145e-01
3.058128e-01
3.345425e-01
3.254340e-01
3.058128e-01
2.958580e-01
3.254340e-01
3.147685e-01
3.345425e-01
3.254340e-01
3.539076e-01
3.442027e-01
3.254340e-01
3.147685e-01
3.442027e-01
3.328384e-01
3.539076e-01
3.442027e-01
3.723533e-01
3.620630e-01
3.442027e-01
3.328384e-01
3.620630e-01
3.500127e-01
3.723533e-01
3.620630e-01
3.898245e-01
3.789604e-01
3.620630e-01
3.500127e-01
3.789604e-01
3.662376e-01
3.898245e-01
3.789604e-01
4.062669e-01
3.948413e-01
3.789604e-01
3.662376e-01
3.948413e-01
3.814604e-01
4.062669e-01
3.948413e-01
4.216275e-01
4.096534e-01
3.948413e-01
3.814604e-01
4.096534e-01
3.956295e-01
4.216275e-01
4.096534e-01
4.358548e-01
4.233457e-01
4.096534e-01
3.956295e-01
4.233457e-01
4.086948e-01
4.358548e-01
4.233457e-01
4.488983e-01
4.358686e-01
4.233457e-01
4.086948e-01
4.358686e-01
4.206073e-01
4.488983e-01
4.358686e-01
4.607090e-01
4.471737e-01
4.358686e-01
4.206073e-01
4.471737e-01
4.313196e-01
4.607090e-01
4.471737e-01
4.712394e-01
4.572141e-01
4.471737e-01
4.313196e-01
4.572141e-01
4.407857e-01
4.712394e-01
4.572141e-01
4.804433e-01
4.659446e-01
4.572141e-01
4.407857e-01
4.659446e-01
4.489611e-01
4.804433e-01
4.659446e-01
4.882763e-01
4.733213e-01
4.659446e-01
4.489611e-01
4.733213e-01
4.558033e-01
4.882763e-01
4.733213e-01
4.946954e-01
4.793022e-01
4.733213e-01
4.558033e-01
4.793022e-01
4.612711e-01
4.946954e-01
4.793022e-01
4.996591e-01
4.838469e-01
4.793022e-01
4.612711e-01
4.838469e-01
4.653254e-01
4.996591e-01
4.838469e-01
5.031276e-01
4.869166e-01
4.838469e-01
4.653254e-01
4.869166e-01
4.679290e-01
5.031276e-01
4.869166e-01
5.050629e-01
4.884745e-01
4.869166e-01
4.679290e-01
4.884745e-01
4.690468e-01
5.050629e-01
4.884745e-01
5.054284e-01
4.884856e-01
4.884745e-01
4.690468e-01
4.884856e-01
4.686458e-01
5.054284e-01
4.884856e-01
5.041892e-01
4.869166e-01
4.884856e-01
4.686458e-01
4.869166e-01
4.666953e-01
5.041892e-01
4.869166e-01
5.013120e-01
4.837364e-01
4.869166e-01
4.666953e-01
4.837364e-01
4.631671e-01
5.013120e-01
4.837364e-01
4.967651e-01
4.789157e-01
4.837364e-01
4.631671e-01
4.789157e-01
4.580355e-01
4.967651e-01
4.789157e-01
4.905182e-01
4.724271e-01
4.789157e-01
4.580355e-01
4.724271e-01
4.512778e-01
4.905182e-01
4.724271e-01
4.825424e-01
4.642453e-01
4.724271e-01
4.512778e-01
4.642453e-01
4.428744e-01
4.825424e-01
4.642453e-01
4.728100e-01
4.543467e-01
4.642453e-01
4.428744e-01
4.543467e-01
4.328088e-01
4.728100e-01
4.543467e-01
4.612946e-01
4.427097e-01
4.543467e-01
4.328088e-01
4.427097e-01
4.210686e-01
4.612946e-01
4.427097e-01
4.479708e-01
4.293145e-01
4.427097e-01
4.210686e-01
4.293145e-01
4.076454e-01
4.479708e-01
4.293145e-01
4.328147e-01
4.141428e-01
4.293145e-01
4.076454e-01
4.141428e-01
3.925362e-01
4.328147e-01
4.141428e-01
4.158044e-01
3.971786e-01
4.141428e-01
3.925362e-01
3.971786e-01
3.757440e-01
4.158044e-01
3.971786e-01
3.969251e-01
3.784126e-01
3.971786e-01
3.757440e-01
3.784126e-01
3.572789e-01
3.969251e-01
3.784126e-01
3.761900e-01
3.578590e-01
3.784126e-01
3.572789e-01
3.578590e-01
3.371476e-01
3.761900e-01
3.578590e-01
3.537162e-01
3.356126e-01
3.578590e-01
3.371476e-01
3.356126e-01
3.152445e-01
3.537162e-01
3.356126e-01
3.304100e-01
3.126389e-01
3.356126e-01
3.152445e-01
3.126389e-01
2.923673e-01
3.304100e-01
3.126389e-01
3.081966e-01
2.910926e-01
3.126389e-01
2.923673e-01
2.910926e-01
2.718276e-01
3.081966e-01
2.910926e-01
2.871766e-01
2.708675e-01
2.910926e-01
2.718276e-01
2.708675e-01
2.526815e-01
2.871766e-01
2.708675e-01
2.671814e-01
2.517743e-01
2.708675e-01
2.526815e-01
2.517743e-01
2.347072e-01
2.671814e-01
2.517743e-01
2.480382e-01
2.336093e-01
2.517743e-01
2.347072e-01
2.336093e-01
2.176929e-01
2.480382e-01
2.336093e-01
2.295964e-01
2.161945e-01
2.336093e-01
2.176929e-01
2.161945e-01
2.014497e-01
2.295964e-01
2.161945e-01
2.117266e-01
1.993775e-01
2.161945e-01
2.014497e-01
1.993775e-01
1.858126e-01
2.117266e-01
1.993775e-01
1.943190e-01
1.830305e-01
1.993775e-01
1.858126e-01
1.830305e-01
1.706424e-01
1.943190e-01
1.830305e-01
1.772819e-01
1.670485e-01
1.830305e-01
1.706424e-01
1.670485e-01
1.558239e-01
1.772819e-01
1.670485e-01
1.605394e-01
1.513458e-01
1.670485e-01
1.558239e-01
1.513458e-01
1.412640e-01
1.605394e-01
1.513458e-01
1.440289e-01
1.358537e-01
1.513458e-01
1.412640e-01
1.358537e-01
1.268891e-01
1.440289e-01
1.358537e-01
1.276994e-01
1.205178e-01
1.358537e-01
1.268891e-01
1.205178e-01
1.126421e-01
1.276994e-01
1.205178e-01
1.115096e-01
1.052956e-01
1.205178e-01
1.126421e-01
1.052956e-01
9.847989e-02
1.115096e-01
1.052956e-01
9.542617e-02
9.015422e-02
1.052956e-01
9.847989e-02
9.015422e-02
8.437072e-02
9.542617e-02
9.015422e-02
7.942274e-02
7.506911e-02
9.015422e-02
8.437072e-02
7.506911e-02
7.029208e-02
7.942274e-02
7.506911e-02
6.347823e-02
6.002196e-02
7.506911e-02
7.029208e-02
6.002196e-02
5.622886e-02
6.347823e-02
6.002196e-02
4.757593e-02
4.499956e-02
6.002196e-02
5.622886e-02
4.499956e-02
4.217167e-02
4.757593e-02
4.499956e-02
3.170248e-02
2.999255e-02
4.499956e-02
4.217167e-02
2.999255e-02
2.811545e-02
3.170248e-02
2.999255e-02
1.584696e-02
1.499430e-02
2.999255e-02
2.811545e-02
1.499430e-02
1.405822e-02
1.584696e-02
1.499430e-02
0.000000e+00
0.000000e+00
1.499430e-02
1.405822e-02
0.000000e+00
0.000000e+00
</DataArray>
<DataArray type="Float32" Name="V4" format="ascii">
8.500000e-01
9.250000e-01
8.500000e-01
9.250000e-01
9.250000e-01
1.000000e+00