<?xml version="1.0"?>
<VTKFile type="UnstructuredGrid" version="0.1" byte_order="LittleEndian" compressor="vtkZLibDataCompressor">
<UnstructuredGrid>
<Piece NumberOfPoints="504" NumberOfCells="126">
<Points>
<DataArray type="Float32" NumberOfComponents="3" format="ascii">
0.000000e+00 5.303735e-01 0.000000e+00
0.000000e+00 5.669488e-01 0.000000e+00
3.170638e-02 5.303824e-01 0.000000e+00
3.168930e-02 5.669527e-01 0.000000e+00
0.000000e+00 5.669488e-01 0.000000e+00
0.000000e+00 6.100000e-01 0.000000e+00
3.168930e-02 5.669527e-01 0.000000e+00
3.167911e-02 6.100000e-01 0.000000e+00
3.170638e-02 5.303824e-01 0.000000e+00
3.168930e-02 5.669527e-01 0.000000e+00
6.341210e-02 5.304034e-01 0.000000e+00
6.337787e-02 5.669641e-01 0.000000e+00
3.168930e-02 5.669527e-01 0.000000e+00
3.167911e-02 6.100000e-01 0.000000e+00
6.337787e-02 5.669641e-01 0.000000e+00
6.335747e-02 6.100000e-01 0.000000e+00
6.341210e-02 5.304034e-01 0.000000e+00
6.337787e-02 5.669641e-01 0.000000e+00
9.511619e-02 5.304383e-01 0.000000e+00
9.506494e-02 5.669831e-01 0.000000e+00
6.337787e-02 5.669641e-01 0.000000e+00
6.335747e-02 6.100000e-01 0.000000e+00
9.506494e-02 5.669831e-01 0.000000e+00
9.503439e-02 6.100000e-01 0.000000e+00
9.511619e-02 5.304383e-01 0.000000e+00
9.506494e-02 5.669831e-01 0.000000e+00
1.268179e-01 5.304872e-01 0.000000e+00
1.267497e-01 5.670097e-01 0.000000e+00
9.506494e-02 5.669831e-01 0.000000e+00
9.503439e-02 6.100000e-01 0.000000e+00
1.267497e-01 5.670097e-01 0.000000e+00
1.267092e-01 6.100000e-01 0.000000e+00
1.268179e-01 5.304872e-01 0.000000e+00
1.267497e-01 5.670097e-01 0.000000e+00
1.585163e-01 5.305501e-01 0.000000e+00
1.584315e-01 5.670438e-01 0.000000e+00
1.267497e-01 5.670097e-01 0.000000e+00
1.267092e-01 6.100000e-01 0.000000e+00
1.584315e-01 5.670438e-01 0.000000e+00
1.583810e-01 6.100000e-01 0.000000e+00
1.585163e-01 5.305501e-01 0.000000e+00
1.584315e-01 5.670438e-01 0.000000e+00
1.902107e-01 5.306267e-01 0.000000e+00
1.901095e-01 5.670855e-01 0.000000e+00
1.584315e-01 5.670438e-01 0.000000e+00
1.583810e-01 6.100000e-01 0.000000e+00
1.901095e-01 5.670855e-01 0.000000e+00
1.900493e-01 6.100000e-01 0.000000e+00
1.902107e-01 5.306267e-01 0.000000e+00
1.901095e-01 5.670855e-01 0.000000e+00
2.219002e-01 5.307172e-01 0.000000e+00
2.217828e-01 5.671347e-01 0.000000e+00
1.901095e-01 5.670855e-01 0.000000e+00
1.900493e-01 6.100000e-01 0.000000e+00
2.217828e-01 5.671347e-01 0.000000e+00
2.217131e-01 6.100000e-01 0.000000e+00
2.219002e-01 5.307172e-01 0.000000e+00
2.217828e-01 5.671347e-01 0.000000e+00
2.535838e-01 5.308214e-01 0.000000e+00
2.534507e-01 5.671914e-01 0.000000e+00
2.217828e-01 5.671347e-01 0.000000e+00
2.217131e-01 6.100000e-01 0.000000e+00
2.534507e-01 5.671914e-01 0.000000e+00
2.533719e-01 6.100000e-01 0.000000e+00
2.535838e-01 5.308214e-01 0.000000e+00
2.534507e-01 5.671914e-01 0.000000e+00
2.852607e-01 5.309392e-01 0.000000e+00
2.851124e-01 5.672555e-01 0.000000e+00
2.534507e-01 5.671914e-01 0.000000e+00
2.533719e-01 6.100000e-01 0.000000e+00
2.851124e-01 5.672555e-01 0.000000e+00
2.850248e-01 6.100000e-01 0.000000e+00
2.852607e-01 5.309392e-01 0.000000e+00
2.851124e-01 5.672555e-01 0.000000e+00
3.169299e-01 5.310705e-01 0.000000e+00
3.167670e-01 5.673271e-01 0.000000e+00
2.851124e-01 5.672555e-01 0.000000e+00
2.850248e-01 6.100000e-01 0.000000e+00
3.167670e-01 5.673271e-01 0.000000e+00
3.166711e-01 6.100000e-01 0.000000e+00
3.169299e-01 5.310705e-01 0.000000e+00
3.167670e-01 5.673271e-01 0.000000e+00
3.485904e-01 5.312154e-01 0.000000e+00
3.484136e-01 5.674061e-01 0.000000e+00
3.167670e-01 5.673271e-01 0.000000e+00
3.166711e-01 6.100000e-01 0.000000e+00
3.484136e-01 5.674061e-01 0.000000e+00
3.483100e-01 6.100000e-01 0.000000e+00
3.485904e-01 5.312154e-01 0.000000e+00
3.484136e-01 5.674061e-01 0.000000e+00
3.802411e-01 5.313736e-01 0.000000e+00
3.800514e-01 5.674925e-01 0.000000e+00
3.484136e-01 5.674061e-01 0.000000e+00
3.483100e-01 6.100000e-01 0.000000e+00
3.800514e-01 5.674925e-01 0.000000e+00
3.799409e-01 6.100000e-01 0.000000e+00
3.802411e-01 5.313736e-01 0.000000e+00
3.800514e-01 5.674925e-01 0.000000e+00
4.118809e-01 5.315450e-01 0.000000e+00
4.116794e-01 5.675863e-01 0.000000e+00
3.800514e-01 5.674925e-01 0.000000e+00
3.799409e-01 6.100000e-01 0.000000e+00
4.116794e-01 5.675863e-01 0.000000e+00
4.115631e-01 6.100000e-01 0.000000e+00
4.118809e-01 5.315450e-01 0.000000e+00
4.116794e-01 5.675863e-01 0.000000e+00
4.435085e-01 5.317296e-01 0.000000e+00
4.432967e-01 5.676875e-01 0.000000e+00
4.116794e-01 5.675863e-01 0.000000e+00
4.115631e-01 6.100000e-01 0.000000e+00
4.432967e-01 5.676875e-01 0.000000e+00
4.431758e-01 6.100000e-01 0.000000e+00
4.435085e-01 5.317296e-01 0.000000e+00
4.432967e-01 5.676875e-01 0.000000e+00
4.751226e-01 5.319273e-01 0.000000e+00
4.749024e-01 5.677962e-01 0.000000e+00
4.432967e-01 5.676875e-01 0.000000e+00
4.431758e-01 6.100000e-01 0.000000e+00
4.749024e-01 5.677962e-01 0.000000e+00
4.747785e-01 6.100000e-01 0.000000e+00
4.751226e-01 5.319273e-01 0.000000e+00
4.749024e-01 5.677962e-01 0.000000e+00
5.067217e-01 5.321380e-01 0.000000e+00
5.064955e-01 5.679124e-01 0.000000e+00
4.749024e-01 5.677962e-01 0.000000e+00
4.747785e-01 6.100000e-01 0.000000e+00
5.064955e-01 5.679124e-01 0.000000e+00
5.063707e-01 6.100000e-01 0.000000e+00
5.067217e-01 5.321380e-01 0.000000e+00
5.064955e-01 5.679124e-01 0.000000e+00
5.383043e-01 5.323616e-01 0.000000e+00
5.380749e-01 5.680362e-01 0.000000e+00
5.064955e-01 5.679124e-01 0.000000e+00
5.063707e-01 6.100000e-01 0.000000e+00
5.380749e-01 5.680362e-01 0.000000e+00
5.379520e-01 6.100000e-01 0.000000e+00
5.383043e-01 5.323616e-01 0.000000e+00
5.380749e-01 5.680362e-01 0.000000e+00
5.698685e-01 5.325981e-01 0.000000e+00
5.696399e-01 5.681677e-01 0.000000e+00
5.380749e-01 5.680362e-01 0.000000e+00
5.379520e-01 6.100000e-01 0.000000e+00
5.696399e-01 5.681677e-01 0.000000e+00
5.695222e-01 6.100000e-01 0.000000e+00
5.698685e-01 5.325981e-01 0.000000e+00
5.696399e-01 5.681677e-01 0.000000e+00
6.014123e-01 5.328475e-01 0.000000e+00
6.011892e-01 5.683073e-01 0.000000e+00
5.696399e-01 5.681677e-01 0.000000e+00
5.695222e-01 6.100000e-01 0.000000e+00
6.011892e-01 5.683073e-01 0.000000e+00
6.010814e-01 6.100000e-01 0.000000e+00
6.014123e-01 5.328475e-01 0.000000e+00
6.011892e-01 5.683073e-01 0.000000e+00
6.329333e-01 5.331099e-01 0.000000e+00
6.327221e-01 5.684552e-01 0.000000e+00
6.011892e-01 5.683073e-01 0.000000e+00
6.010814e-01 6.100000e-01 0.000000e+00
6.327221e-01 5.684552e-01 0.000000e+00
6.326299e-01 6.100000e-01 0.000000e+00
6.329333e-01 5.331099e-01 0.000000e+00
6.327221e-01 5.684552e-01 0.000000e+00
6.644288e-01 5.333853e-01 0.000000e+00
6.642377e-01 5.686119e-01 0.000000e+00
6.327221e-01 5.684552e-01 0.000000e+00
6.326299e-01 6.100000e-01 0.000000e+00
6.642377e-01 5.686119e-01 0.000000e+00
6.641686e-01 6.100000e-01 0.000000e+00
6.644288e-01 5.333853e-01 0.000000e+00
6.642377e-01 5.686119e-01 0.000000e+00
6.958956e-01 5.336740e-01 0.000000e+00
6.957351e-01 5.687780e-01 0.000000e+00
6.642377e-01 5.686119e-01 0.000000e+00
6.641686e-01 6.100000e-01 0.000000e+00
6.957351e-01 5.687780e-01 0.000000e+00
6.956990e-01 6.100000e-01 0.000000e+00
6.958956e-01 5.336740e-01 0.000000e+00
6.957351e-01 5.687780e-01 0.000000e+00
7.273298e-01 5.339762e-01 0.000000e+00
7.272136e-01 5.689544e-01 0.000000e+00
6.957351e-01 5.687780e-01 0.000000e+00
6.956990e-01 6.100000e-01 0.000000e+00
7.272136e-01 5.689544e-01 0.000000e+00
7.272232e-01 6.100000e-01 0.000000e+00
7.273298e-01 5.339762e-01 0.000000e+00
7.272136e-01 5.689544e-01 0.000000e+00
7.587266e-01 5.342923e-01 0.000000e+00
7.586728e-01 5.691422e-01 0.000000e+00
7.272136e-01 5.689544e-01 0.000000e+00
7.272232e-01 6.100000e-01 0.000000e+00
7.586728e-01 5.691422e-01 0.000000e+00
7.587447e-01 6.100000e-01 0.000000e+00
7.587266e-01 5.342923e-01 0.000000e+00
7.586728e-01 5.691422e-01 0.000000e+00
7.900804e-01 5.346229e-01 0.000000e+00
7.901123e-01 5.693427e-01 0.000000e+00
7.586728e-01 5.691422e-01 0.000000e+00
7.587447e-01 6.100000e-01 0.000000e+00
7.901123e-01 5.693427e-01 0.000000e+00
7.902682e-01 6.100000e-01 0.000000e+00
7.900804e-01 5.346229e-01 0.000000e+00
7.901123e-01 5.693427e-01 0.000000e+00
8.213840e-01 5.349687e-01 0.000000e+00
8.215323e-01 5.695577e-01 0.000000e+00
7.901123e-01 5.693427e-01 0.000000e+00
7.902682e-01 6.100000e-01 0.000000e+00
8.215323e-01 5.695577e-01 0.000000e+00
8.218002e-01 6.100000e-01 0.000000e+00
8.213840e-01 5.349687e-01 0.000000e+00
8.215323e-01 5.695577e-01 0.000000e+00
8.526285e-01 5.353303e-01 0.000000e+00
8.529329e-01 5.697896e-01 0.000000e+00
8.215323e-01 5.695577e-01 0.000000e+00
8.218002e-01 6.100000e-01 0.000000e+00
8.529329e-01 5.697896e-01 0.000000e+00
8.533497e-01 6.100000e-01 0.000000e+00
8.526285e-01 5.353303e-01 0.000000e+00
8.529329e-01 5.697896e-01 0.000000e+00
8.838024e-01 5.357086e-01 0.000000e+00
8.843149e-01 5.700409e-01 0.000000e+00
8.529329e-01 5.697896e-01 0.000000e+00
8.533497e-01 6.100000e-01 0.000000e+00
8.843149e-01 5.700409e-01 0.000000e+00
8.849288e-01 6.100000e-01 0.000000e+00
8.838024e-01 5.357086e-01 0.000000e+00
8.843149e-01 5.700409e-01 0.000000e+00
9.148912e-01 5.361040e-01 0.000000e+00
9.156794e-01 5.703149e-01 0.000000e+00
8.843149e-01 5.700409e-01 0.000000e+00
8.849288e-01 6.100000e-01 0.000000e+00
9.156794e-01 5.703149e-01 0.000000e+00
9.165535e-01 6.100000e-01 0.000000e+00
9.148912e-01 5.361040e-01 0.000000e+00
9.156794e-01 5.703149e-01 0.000000e+00
9.458762e-01 5.365161e-01 0.000000e+00
9.470273e-01 5.706148e-01 0.000000e+00
9.156794e-01 5.703149e-01 0.000000e+00
9.165535e-01 6.100000e-01 0.000000e+00
9.470273e-01 5.706148e-01 0.000000e+00
9.482449e-01 6.100000e-01 0.000000e+00
9.458762e-01 5.365161e-01 0.000000e+00
9.470273e-01 5.706148e-01 0.000000e+00
9.767334e-01 5.369429e-01 0.000000e+00
9.783586e-01 5.709433e-01 0.000000e+00
9.470273e-01 5.706148e-01 0.000000e+00
9.482449e-01 6.100000e-01 0.000000e+00
9.783586e-01 5.709433e-01 0.000000e+00
9.800305e-01 6.100000e-01 0.000000e+00
9.767334e-01 5.369429e-01 0.000000e+00
[...]
<PointData>
<DataArray type="Float32" Name="V1" format="ascii">
4.281021e+01
1.471575e+01
4.282741e+01
1.473296e+01
1.551981e+01
2.261097e+00
1.552757e+01
2.268852e+00
4.283604e+01
1.472262e+01
4.287953e+01
1.476611e+01
1.553374e+01
2.265669e+00
1.555397e+01
2.285897e+00
4.289907e+01
1.474645e+01
4.297164e+01
1.481902e+01
1.556604e+01
2.279204e+00
1.560047e+01
2.313636e+00
4.300097e+01
1.478951e+01
4.310287e+01
1.489141e+01
1.561821e+01
2.303160e+00
1.566684e+01
2.351785e+00
4.314201e+01
1.485194e+01
4.327349e+01
1.498342e+01
1.569036e+01
2.337569e+00
1.575327e+01
2.400483e+00
4.332252e+01
1.493390e+01
4.348391e+01
1.509529e+01
1.578266e+01
2.382523e+00
1.586002e+01
2.459881e+00
4.354292e+01
1.503563e+01
4.373461e+01
1.522732e+01
1.589537e+01
2.438144e+00
1.598739e+01
2.530161e+00
4.380370e+01
1.515741e+01
4.402615e+01
1.537986e+01
1.602879e+01
2.504602e+00
1.613573e+01
2.611544e+00
4.410544e+01
1.529959e+01
4.435920e+01
1.555334e+01
1.618331e+01
2.582099e+00
1.630550e+01
2.704290e+00
4.444881e+01
1.546257e+01
4.473448e+01
1.574824e+01
1.635935e+01
2.670890e+00
1.649717e+01
2.808711e+00
4.483452e+01
1.564684e+01
4.515279e+01
1.596510e+01
1.655744e+01
2.771269e+00
1.671133e+01
2.925168e+00
4.526339e+01
1.585294e+01
4.561500e+01
1.620454e+01
1.677815e+01
2.883591e+00
1.694865e+01
3.054087e+00
4.573625e+01
1.608150e+01
4.612201e+01
1.646726e+01
1.702217e+01
3.008272e+00
1.720987e+01
3.195967e+00
4.625399e+01
1.633324e+01
4.667477e+01
1.675402e+01
1.729025e+01
3.145805e+00
1.749585e+01
3.351402e+00
4.681749e+01
1.660898e+01
4.727420e+01
1.706569e+01
1.758325e+01
3.296765e+00
1.780757e+01
3.521078e+00
4.742760e+01
1.690963e+01
4.792118e+01
1.740321e+01
1.790215e+01
3.461848e+00
1.814614e+01
3.705837e+00
4.808510e+01
1.723627e+01
4.861649e+01
1.776765e+01
1.824807e+01
3.641879e+00
1.851285e+01
3.906663e+00
4.879059e+01
1.759008e+01
4.936071e+01
1.816019e+01
1.862224e+01
3.837848e+00
1.890916e+01
4.124764e+00
4.954445e+01
1.797246e+01
5.015414e+01
1.858215e+01
1.902613e+01
4.050963e+00
1.933678e+01
4.361613e+00
5.034667e+01
1.838500e+01
5.099664e+01
1.903497e+01
1.946138e+01
4.282705e+00
1.979768e+01
4.619014e+00
5.119665e+01
1.882957e+01
5.188739e+01
1.952031e+01
1.992991e+01
4.534896e+00
2.029424e+01
4.899227e+00
5.209301e+01
1.930837e+01
5.282466e+01
2.004002e+01
2.043396e+01
4.809821e+00
2.082922e+01
5.205088e+00
5.303323e+01
1.982401e+01
5.380543e+01
2.059621e+01
2.097617e+01
5.110358e+00
2.140601e+01
5.540203e+00
5.401317e+01
2.037964e+01
5.482485e+01
2.119131e+01
2.155969e+01
5.440174e+00
2.202871e+01
5.909190e+00
5.502655e+01
2.097911e+01
5.587557e+01
2.182813e+01
2.218830e+01
5.803987e+00
2.270236e+01
6.318046e+00
5.606408e+01
2.162717e+01
5.694687e+01
2.250996e+01
2.286659e+01
6.207922e+00
2.343326e+01
6.774594e+00
5.711246e+01
2.232972e+01
5.802346e+01
2.324072e+01
2.360017e+01
6.660051e+00
2.422934e+01
7.289220e+00
5.815305e+01
2.309421e+01
5.908392e+01
2.402508e+01
2.439587e+01
7.171141e+00
2.510058e+01
7.875853e+00
5.916021e+01
2.392993e+01
6.009890e+01
2.486862e+01
2.526198e+01
7.755808e+00
2.605966e+01
8.553488e+00
6.009930e+01
2.484857e+01
6.102882e+01
2.577810e+01
2.620825e+01
8.434389e+00
2.712255e+01
9.348692e+00
6.092444e+01
2.586461e+01
6.182163e+01
2.676181e+01
2.724541e+01
9.236154e+00
2.830912e+01
1.029986e+01
6.157626e+01
2.699597e+01
6.241113e+01
2.783083e+01
2.838330e+01
1.020532e+01
2.964337e+01
1.146539e+01
6.198000e+01
2.826550e+01
6.271759e+01
2.900309e+01
2.962556e+01
1.141333e+01
3.115309e+01
1.294087e+01
6.204429e+01
2.970673e+01
6.265482e+01
3.031726e+01
3.095640e+01
1.298652e+01
3.286904e+01
1.489915e+01
6.166283e+01
3.138266e+01
6.215654e+01
3.187637e+01
3.231426e+01
1.516594e+01
3.483172e+01
1.768340e+01
6.069372e+01
3.346877e+01
6.122443e+01
3.399949e+01
3.350401e+01
1.854605e+01
3.699360e+01
2.203564e+01
5.919775e+01
3.634729e+01
5.993240e+01
3.708194e+01
3.463223e+01
2.466385e+01
3.821794e+01
2.824956e+01
5.842370e+01
3.865257e+01
5.909568e+01
3.932455e+01
3.735644e+01
2.827498e+01
3.927592e+01
3.019446e+01
5.834531e+01
4.005090e+01
5.929516e+01
4.100076e+01
3.907773e+01
3.030130e+01
4.079940e+01
3.202298e+01
5.895345e+01
4.132765e+01
6.013462e+01
4.250883e+01
4.068859e+01
3.207699e+01
4.225948e+01
3.364789e+01
6.005513e+01
4.258533e+01
6.142310e+01
4.395330e+01
4.226814e+01
3.363293e+01
4.371657e+01
3.508136e+01
6.150089e+01
4.386229e+01
6.299733e+01
4.535874e+01
4.381034e+01
3.501162e+01
4.514997e+01
3.635125e+01
6.318134e+01
4.515010e+01
6.475732e+01
4.672608e+01
4.531074e+01
3.623788e+01
4.655301e+01
3.748014e+01
6.501434e+01
4.643487e+01
6.662958e+01
4.805011e+01
4.676271e+01
3.733462e+01
4.791648e+01
3.848838e+01
6.693678e+01
4.770200e+01
6.855886e+01
4.932408e+01
4.815990e+01
3.832089e+01
4.923218e+01
3.939316e+01
6.889917e+01
4.893875e+01
7.050215e+01
5.054173e+01
4.949669e+01
3.921227e+01
5.049301e+01
4.020859e+01
7.086231e+01
5.013465e+01
7.242558e+01
5.169792e+01
5.076851e+01
4.002119e+01
5.169329e+01
4.094596e+01
7.279499e+01
5.128138e+01
7.430230e+01
5.278869e+01
5.197182e+01
4.075746e+01
5.282862e+01
4.161426e+01
7.467241e+01
5.237250e+01
7.611106e+01
5.381115e+01
5.310402e+01
4.142877e+01
5.389576e+01
4.222051e+01
7.647494e+01
5.340313e+01
7.783508e+01
5.476327e+01
5.416327e+01
4.204116e+01
5.489238e+01
4.277027e+01
7.818714e+01
5.436966e+01
7.946125e+01
5.564377e+01
5.514838e+01
4.259935e+01
5.581689e+01
4.326787e+01
7.979699e+01
5.526944e+01
8.097940e+01
5.645185e+01
5.605864e+01
4.310709e+01
5.666830e+01
4.371675e+01
8.129523e+01
5.610066e+01
8.238171e+01
5.718714e+01
5.689375e+01
4.356734e+01
5.744603e+01
4.411962e+01
8.267479e+01
5.686205e+01
8.366230e+01
5.784956e+01
5.765365e+01
4.398246e+01
5.814983e+01
4.447864e+01
8.393040e+01
5.755285e+01
8.481678e+01
5.843923e+01
5.833850e+01
4.435434e+01
5.877968e+01
4.479553e+01
8.505816e+01
5.817261e+01
8.584193e+01
5.895638e+01
5.894859e+01
4.468453e+01
5.933574e+01
4.507168e+01
8.605528e+01
5.872115e+01
8.673546e+01
5.940133e+01
5.948431e+01
4.497425e+01
5.981825e+01
4.530818e+01
8.691976e+01
5.919843e+01
8.749575e+01
5.977443e+01
5.994607e+01
4.522450e+01
6.022748e+01
4.550591e+01
8.765026e+01
5.960455e+01
8.812172e+01
6.007601e+01
6.033429e+01
4.543609e+01
6.056376e+01
4.566556e+01
8.824588e+01
5.993964e+01
8.861264e+01
6.030639e+01
6.064936e+01
4.560967e+01
6.082736e+01
4.578767e+01
8.870606e+01
6.020387e+01
8.896804e+01
6.046585e+01
6.089164e+01
4.574574e+01
6.101852e+01
4.587262e+01
8.903045e+01
6.039739e+01
8.918764e+01
6.055457e+01
6.106141e+01
4.584466e+01
6.113743e+01
4.592069e+01
8.921889e+01
6.052031e+01
8.927128e+01
6.057270e+01
6.115889e+01
4.590671e+01
6.118421e+01
4.593203e+01
</DataArray>
<DataArray type="Float32" Name="V2" format="ascii">
5.303735e-01
5.669488e-01
5.310080e-01
5.675665e-01
5.669488e-01
6.100000e-01
5.675665e-01
6.106002e-01
5.310080e-01
5.675665e-01
5.329049e-01
5.694185e-01
5.675665e-01
6.106002e-01
5.694185e-01
6.123998e-01
5.329049e-01
5.694185e-01
5.360632e-01
5.725019e-01
5.694185e-01
6.123998e-01
5.725019e-01
6.153962e-01
5.360632e-01
5.725019e-01
5.404781e-01
5.768123e-01
5.725019e-01
6.153962e-01
5.768123e-01
6.195849e-01
5.404781e-01
5.768123e-01
5.461431e-01
5.823431e-01
5.768123e-01
6.195849e-01
5.823431e-01
6.249596e-01
5.461431e-01
5.823431e-01
5.530495e-01
5.890860e-01
5.823431e-01
6.249596e-01
5.890860e-01
6.315122e-01
5.530495e-01
5.890860e-01
5.611870e-01
5.970308e-01
5.890860e-01
6.315122e-01
5.970308e-01
6.392328e-01
5.611870e-01
5.970308e-01
5.705431e-01
6.061657e-01
5.970308e-01
6.392328e-01
6.061657e-01
6.481099e-01
5.705431e-01
6.061657e-01
5.811039e-01
6.164767e-01
6.061657e-01
6.481099e-01
6.164767e-01
6.581300e-01
5.811039e-01
6.164767e-01
5.928532e-01
6.279484e-01
6.164767e-01
6.581300e-01
6.279484e-01
6.692781e-01
5.928532e-01
6.279484e-01
6.057732e-01
6.405634e-01
6.279484e-01
6.692781e-01
6.405634e-01
6.815372e-01
6.057732e-01
6.405634e-01
6.198442e-01
6.543025e-01
6.405634e-01
6.815372e-01
6.543025e-01
6.948890e-01
6.198442e-01
6.543025e-01
6.350446e-01
6.691450e-01
6.543025e-01
6.948890e-01
6.691450e-01
7.093130e-01
6.350446e-01
6.691450e-01
6.513512e-01
6.850682e-01
6.691450e-01
7.093130e-01
6.850682e-01
7.247875e-01
6.513512e-01
6.850682e-01
6.687389e-01
7.020479e-01
6.850682e-01
7.247875e-01
7.020479e-01
7.412891e-01
6.687389e-01
7.020479e-01
6.871809e-01
7.200582e-01
7.020479e-01
7.412891e-01
7.200582e-01
7.587925e-01
6.871809e-01
7.200582e-01
7.066484e-01
7.390716e-01
7.200582e-01
7.587925e-01
7.390716e-01
7.772713e-01
7.066484e-01
7.390716e-01
7.271110e-01
7.590589e-01
7.390716e-01
7.772713e-01
7.590589e-01
7.966974e-01
7.271110e-01
7.590589e-01
7.485367e-01
7.799896e-01
7.590589e-01
7.966974e-01
7.799896e-01
8.170415e-01
7.485367e-01
7.799896e-01
7.708915e-01
8.018315e-01
7.799896e-01
8.170415e-01
8.018315e-01
8.382729e-01
7.708915e-01
8.018315e-01
7.941396e-01
8.245512e-01
8.018315e-01
8.382729e-01
8.245512e-01
8.603598e-01
7.941396e-01
8.245512e-01
8.182436e-01
8.481139e-01
8.245512e-01
8.603598e-01
8.481139e-01
8.832694e-01
8.182436e-01
8.481139e-01
8.431638e-01
8.724835e-01
8.481139e-01
8.832694e-01
8.724835e-01
9.069681e-01
8.431638e-01
8.724835e-01
8.688589e-01
8.976229e-01
8.724835e-01
9.069681e-01
8.976229e-01
9.314218e-01
8.688589e-01
8.976229e-01
8.952851e-01
9.234941e-01
8.976229e-01
9.314218e-01
9.234941e-01
9.565962e-01
8.952851e-01
9.234941e-01
9.223962e-01
9.500578e-01
9.234941e-01
9.565962e-01
9.500578e-01
9.824574e-01
9.223962e-01
9.500578e-01
9.501433e-01
9.772744e-01
9.500578e-01
9.824574e-01
9.772744e-01
1.008972e+00
9.501433e-01
9.772744e-01
9.784738e-01
1.005103e+00
9.772744e-01
1.008972e+00
1.005103e+00
1.036108e+00
9.784738e-01
1.005103e+00
1.007331e+00
1.033504e+00
1.005103e+00
1.036108e+00
1.033504e+00
1.063837e+00
1.007331e+00
1.033504e+00
1.036653e+00
1.062432e+00
1.033504e+00
1.063837e+00
1.062432e+00
1.092132e+00
1.036653e+00
1.062432e+00
1.066371e+00
1.091845e+00
1.062432e+00
1.092132e+00
1.091845e+00
1.120972e+00
1.066371e+00
1.091845e+00
1.096403e+00
1.121692e+00
1.091845e+00
1.120972e+00
1.121692e+00
1.150342e+00
1.096403e+00
1.121692e+00
1.126654e+00
1.151910e+00
1.121692e+00
1.150342e+00
1.151910e+00
1.180233e+00
1.126654e+00
1.151910e+00
1.156994e+00
1.182404e+00
1.151910e+00
1.180233e+00
1.182404e+00
1.210636e+00
1.156994e+00
1.182404e+00
1.187229e+00
1.212995e+00
1.182404e+00
1.210636e+00
1.212995e+00
1.241514e+00
1.187229e+00
1.212995e+00
1.217056e+00
1.243329e+00
1.212995e+00
1.241514e+00
1.243329e+00
1.272675e+00
1.217056e+00
1.243329e+00
1.246041e+00
1.272743e+00
1.243329e+00
1.272675e+00
1.272743e+00
1.302444e+00
1.246041e+00
1.272743e+00
1.273401e+00
1.300349e+00
1.272743e+00
1.302444e+00
1.300349e+00
1.330152e+00
1.273401e+00
1.300349e+00
1.299087e+00
1.326452e+00
1.300349e+00
1.330152e+00
1.326452e+00
1.356571e+00
1.299087e+00
1.326452e+00
1.323156e+00
1.351031e+00
1.326452e+00
1.356571e+00
1.351031e+00
1.381563e+00
1.323156e+00
1.351031e+00
1.345706e+00
1.374115e+00
1.351031e+00
1.381563e+00
1.374115e+00
1.405109e+00
1.345706e+00
1.374115e+00
1.366811e+00
1.395736e+00
1.374115e+00
1.405109e+00
1.395736e+00
1.427204e+00
1.366811e+00
1.395736e+00
1.386538e+00
1.415939e+00
1.395736e+00
1.427204e+00
1.415939e+00
1.447869e+00
1.386538e+00
1.415939e+00
1.404949e+00
1.434775e+00
1.415939e+00
1.447869e+00
1.434775e+00
1.467139e+00
1.404949e+00
1.434775e+00
1.422102e+00
1.452300e+00
1.434775e+00
1.467139e+00
1.452300e+00
1.485060e+00
1.422102e+00
1.452300e+00
1.438049e+00
1.468567e+00
1.452300e+00
1.485060e+00
1.468567e+00
1.501682e+00
1.438049e+00
1.468567e+00
1.452839e+00
1.483629e+00
1.468567e+00
1.501682e+00
1.483629e+00
1.517057e+00
1.452839e+00
1.483629e+00
1.466520e+00
1.497537e+00
1.483629e+00
1.517057e+00
1.497537e+00
1.531237e+00
1.466520e+00
1.497537e+00
1.479133e+00
1.510339e+00
1.497537e+00
1.531237e+00
1.510339e+00
1.544272e+00
1.479133e+00
1.510339e+00
1.490717e+00
1.522078e+00
1.510339e+00
1.544272e+00
1.522078e+00
1.556211e+00
1.490717e+00
1.522078e+00
1.501307e+00
1.532795e+00
1.522078e+00
1.556211e+00
1.532795e+00
1.567098e+00
1.501307e+00
1.532795e+00
1.510938e+00
1.542527e+00
1.532795e+00
1.567098e+00
1.542527e+00
1.576972e+00
1.510938e+00
1.542527e+00
1.519637e+00
1.551308e+00
1.542527e+00
1.576972e+00
1.551308e+00
1.585872e+00
1.519637e+00
1.551308e+00
1.527431e+00
1.559167e+00
1.551308e+00
1.585872e+00
1.559167e+00
1.593829e+00
1.527431e+00
1.559167e+00
1.534344e+00
1.566131e+00
1.559167e+00
1.593829e+00
1.566131e+00
1.600874e+00
1.534344e+00
1.566131e+00
1.540397e+00
1.572223e+00
1.566131e+00
1.600874e+00
1.572223e+00
1.607033e+00
1.540397e+00
1.572223e+00
1.545608e+00
1.577464e+00
1.572223e+00
1.607033e+00
1.577464e+00
1.612326e+00
1.545608e+00
1.577464e+00
1.549991e+00
1.581870e+00
1.577464e+00
1.612326e+00
1.581870e+00
1.616774e+00
1.549991e+00
1.581870e+00
1.553560e+00
1.585455e+00
1.581870e+00
1.616774e+00
1.585455e+00
1.620393e+00
1.553560e+00
1.585455e+00
1.556325e+00
1.588233e+00
1.585455e+00
1.620393e+00
1.588233e+00
1.623194e+00
1.556325e+00
1.588233e+00
1.558295e+00
1.590210e+00
1.588233e+00
1.623194e+00
1.590210e+00
1.625188e+00
1.558295e+00
1.590210e+00
1.559474e+00
1.591394e+00
1.590210e+00
1.625188e+00
1.591394e+00
1.626381e+00
1.559474e+00
1.591394e+00
1.559867e+00
1.591788e+00
1.591394e+00
1.626381e+00
1.591788e+00
1.626779e+00
</DataArray>
<DataArray type="Float32" Name="V3" format="ascii">
0.000000e+00
0.000000e+00
1.847372e-02
1.754492e-02
0.000000e+00
0.000000e+00
1.754492e-02
1.646154e-02
1.847372e-02
1.754492e-02
3.689485e-02
3.503826e-02
1.754492e-02
1.646154e-02
3.503826e-02
3.287272e-02
3.689485e-02
3.503826e-02
5.521052e-02
5.242842e-02
3.503826e-02
3.287272e-02
5.242842e-02
4.918330e-02
5.521052e-02
5.242842e-02
7.336821e-02
6.966396e-02
5.242842e-02
4.918330e-02
6.966396e-02
6.534312e-02
7.336821e-02
6.966396e-02
9.131555e-02
8.669363e-02
6.966396e-02
6.534312e-02
8.669363e-02
8.130220e-02
9.131555e-02
8.669363e-02
1.090004e-01
1.034664e-01
8.669363e-02
8.130220e-02
1.034664e-01
9.701078e-02
1.090004e-01
1.034664e-01
1.263709e-01
1.199315e-01
1.034664e-01
9.701078e-02
1.199315e-01
1.124194e-01
1.263709e-01
1.199315e-01
1.433757e-01
1.360386e-01
1.199315e-01
1.124194e-01
1.360386e-01
1.274790e-01
1.433757e-01
1.360386e-01
1.599635e-01
1.517378e-01
1.360386e-01
1.274790e-01
1.517378e-01
1.421408e-01
1.599635e-01
1.517378e-01
1.760840e-01
1.669795e-01
1.517378e-01
1.421408e-01
1.669795e-01
1.563567e-01
1.760840e-01
1.669795e-01
1.916870e-01
1.817148e-01
1.669795e-01
1.563567e-01
1.817148e-01
1.700790e-01
1.916870e-01
1.817148e-01
2.067229e-01
1.958954e-01
1.817148e-01
1.700790e-01
1.958954e-01
1.832606e-01
2.067229e-01
1.958954e-01
2.211431e-01
2.094735e-01
1.958954e-01
1.832606e-01
2.094735e-01
1.958550e-01
2.211431e-01
2.094735e-01
2.348994e-01
2.224021e-01
2.094735e-01
1.958550e-01
2.224021e-01
2.078167e-01
2.348994e-01
2.224021e-01
2.479443e-01
2.346349e-01
2.224021e-01
2.078167e-01
2.346349e-01
2.191008e-01
2.479443e-01
2.346349e-01
2.602311e-01
2.461266e-01
2.346349e-01
2.191008e-01
2.461266e-01
2.296633e-01
2.602311e-01
2.461266e-01
2.717141e-01
2.568325e-01
2.461266e-01
2.296633e-01
2.568325e-01
2.394613e-01
2.717141e-01
2.568325e-01
2.823481e-01
2.667090e-01
2.568325e-01
2.394613e-01
2.667090e-01
2.484527e-01
2.823481e-01
2.667090e-01
2.920891e-01
2.757135e-01
2.667090e-01
2.484527e-01
2.757135e-01
2.565969e-01
2.920891e-01
2.757135e-01
3.008938e-01
2.838043e-01
2.757135e-01
2.565969e-01
2.838043e-01
2.638543e-01
3.008938e-01
2.838043e-01
3.087196e-01
2.909408e-01
2.838043e-01
2.638543e-01
2.909408e-01
2.701869e-01
3.087196e-01
2.909408e-01
3.155250e-01
2.970835e-01
2.909408e-01
2.701869e-01
2.970835e-01
2.755581e-01
3.155250e-01
2.970835e-01
3.212691e-01
3.021942e-01
2.970835e-01
2.755581e-01
3.021942e-01
2.799331e-01
3.212691e-01
3.021942e-01
3.259118e-01
3.062357e-01
3.021942e-01
2.799331e-01
3.062357e-01
2.832791e-01
3.259118e-01
3.062357e-01
3.294136e-01
3.091720e-01
3.062357e-01
2.832791e-01
3.091720e-01
2.855651e-01
3.294136e-01
3.091720e-01
3.317355e-01
3.109686e-01
3.091720e-01
2.855651e-01
3.109686e-01
2.867630e-01
3.317355e-01
3.109686e-01
3.328388e-01
3.115918e-01
3.109686e-01
2.867630e-01
3.115918e-01
2.868469e-01
3.328388e-01
3.115918e-01
3.326850e-01
3.110093e-01
3.115918e-01
2.868469e-01
3.110093e-01
2.857944e-01
3.326850e-01
3.110093e-01
3.312358e-01
3.091899e-01
3.110093e-01
2.857944e-01
3.091899e-01
2.835862e-01
3.312358e-01
3.091899e-01
3.284527e-01
3.061035e-01
3.091899e-01
2.835862e-01
3.061035e-01
2.802073e-01
3.284527e-01
3.061035e-01
3.242977e-01
3.017208e-01
3.061035e-01
2.802073e-01
3.017208e-01
2.756469e-01
3.242977e-01
3.017208e-01
3.187346e-01
2.960142e-01
3.017208e-01
2.756469e-01
2.960142e-01
2.698984e-01
3.187346e-01
2.960142e-01
3.117323e-01
2.889587e-01
2.960142e-01
2.698984e-01
2.889587e-01
2.629589e-01
3.117323e-01
2.889587e-01
3.032749e-01
2.805388e-01
2.889587e-01
2.629589e-01
2.805388e-01
2.548218e-01
3.032749e-01
2.805388e-01
2.933899e-01
2.707699e-01
2.805388e-01
2.548218e-01
2.707699e-01
2.454555e-01
2.933899e-01
2.707699e-01
2.822117e-01
2.597443e-01
2.707699e-01
2.454555e-01
2.597443e-01
2.347048e-01
2.822117e-01
2.597443e-01
2.702734e-01
2.480578e-01
2.597443e-01
2.347048e-01
2.480578e-01
2.230094e-01
2.702734e-01
2.480578e-01
2.584121e-01
2.367775e-01
2.480578e-01
2.230094e-01
2.367775e-01
2.128321e-01
2.584121e-01
2.367775e-01
2.468418e-01
2.260116e-01
2.367775e-01
2.128321e-01
2.260116e-01
2.032773e-01
2.468418e-01
2.260116e-01
2.356130e-01
2.157433e-01
2.260116e-01
2.032773e-01
2.157433e-01
1.942444e-01
2.356130e-01
2.157433e-01
2.246732e-01
2.058594e-01
2.157433e-01
1.942444e-01
2.058594e-01
1.856106e-01
2.246732e-01
2.058594e-01
2.139747e-01
1.962697e-01
2.058594e-01
1.856106e-01
1.962697e-01
1.772743e-01
2.139747e-01
1.962697e-01
2.034704e-01
1.868962e-01
1.962697e-01
1.772743e-01
1.868962e-01
1.691460e-01
2.034704e-01
1.868962e-01
1.931182e-01
1.776741e-01
1.868962e-01
1.691460e-01
1.776741e-01
1.611498e-01
1.931182e-01
1.776741e-01
1.828812e-01
1.685506e-01
1.776741e-01
1.611498e-01
1.685506e-01
1.532232e-01
1.828812e-01
1.685506e-01
1.727280e-01
1.594828e-01
1.685506e-01
1.532232e-01
1.594828e-01
1.453162e-01
1.727280e-01
1.594828e-01
1.626319e-01
1.504367e-01
1.594828e-01
1.453162e-01
1.504367e-01
1.373897e-01
1.626319e-01
1.504367e-01
1.525705e-01
1.413857e-01
1.504367e-01
1.373897e-01
1.413857e-01
1.294144e-01
1.525705e-01
1.413857e-01
1.425260e-01
1.323096e-01
1.413857e-01
1.294144e-01
1.323096e-01
1.213690e-01
1.425260e-01
1.323096e-01
1.324838e-01
1.231936e-01
1.323096e-01
1.213690e-01
1.231936e-01
1.132388e-01
1.324838e-01
1.231936e-01
1.224328e-01
1.140273e-01
1.231936e-01
1.132388e-01
1.140273e-01
1.050149e-01
1.224328e-01
1.140273e-01
1.123647e-01
1.048043e-01
1.140273e-01
1.050149e-01
1.048043e-01
9.669300e-02
1.123647e-01
1.048043e-01
1.022735e-01
9.552114e-02
1.048043e-01
9.669300e-02
9.552114e-02
8.827231e-02
1.022735e-01
9.552114e-02
9.215573e-02
8.617706e-02
9.552114e-02
8.827231e-02
8.617706e-02
7.975513e-02
9.215573e-02
8.617706e-02
8.200938e-02
7.677337e-02
8.617706e-02
7.975513e-02
7.677337e-02
7.114615e-02
8.200938e-02
7.677337e-02
7.183419e-02
6.731312e-02
7.677337e-02
7.114615e-02
6.731312e-02
6.245191e-02
7.183419e-02
6.731312e-02
6.163116e-02
5.780079e-02
6.731312e-02
6.245191e-02
5.780079e-02
5.368047e-02
6.163116e-02
5.780079e-02
5.140243e-02
4.824200e-02
5.780079e-02
5.368047e-02
4.824200e-02
4.484108e-02
5.140243e-02
4.824200e-02
4.115098e-02
3.864324e-02
4.824200e-02
4.484108e-02
3.864324e-02
3.594386e-02
4.115098e-02
3.864324e-02
3.088055e-02
2.901174e-02
3.864324e-02
3.594386e-02
2.901174e-02
2.699963e-02
3.088055e-02
2.901174e-02
2.059541e-02
1.935524e-02
2.901174e-02
2.699963e-02
1.935524e-02
1.801974e-02
2.059541e-02
1.935524e-02
1.030024e-02
9.681866e-03
1.935524e-02
1.801974e-02
9.681866e-03
9.015891e-03
1.030024e-02
9.681866e-03
0.000000e+00
0.000000e+00
9.681866e-03
9.015891e-03
0.000000e+00
0.000000e+00
</DataArray>
<DataArray type="Float32" Name="V4" format="ascii">
8.500000e-01
9.250000e-01
8.500000e-01
9.250000e-01
9.250000e-01
1.000000e+00