<?xml version="1.0"?>
<VTKFile type="UnstructuredGrid" version="0.1" byte_order="LittleEndian" compressor="vtkZLibDataCompressor">
<UnstructuredGrid>
<Piece NumberOfPoints="504" NumberOfCells="126">
<Points>
<DataArray type="Float32" NumberOfComponents="3" format="ascii">
0.000000e+00 4.039049e-01 0.000000e+00
0.000000e+00 4.252730e-01 0.000000e+00
4.147862e-02 4.039135e-01 0.000000e+00
4.147710e-02 4.252742e-01 0.000000e+00
0.000000e+00 4.252730e-01 0.000000e+00
0.000000e+00 4.503906e-01 0.000000e+00
4.147710e-02 4.252742e-01 0.000000e+00
4.147730e-02 4.503906e-01 0.000000e+00
4.147862e-02 4.039135e-01 0.000000e+00
4.147710e-02 4.252742e-01 0.000000e+00
8.295622e-02 4.039253e-01 0.000000e+00
8.295311e-02 4.252805e-01 0.000000e+00
4.147710e-02 4.252742e-01 0.000000e+00
4.147730e-02 4.503906e-01 0.000000e+00
8.295311e-02 4.252805e-01 0.000000e+00
8.295340e-02 4.503906e-01 0.000000e+00
8.295622e-02 4.039253e-01 0.000000e+00
8.295311e-02 4.252805e-01 0.000000e+00
1.244313e-01 4.039447e-01 0.000000e+00
1.244266e-01 4.252909e-01 0.000000e+00
8.295311e-02 4.252805e-01 0.000000e+00
8.295340e-02 4.503906e-01 0.000000e+00
1.244266e-01 4.252909e-01 0.000000e+00
1.244270e-01 4.503906e-01 0.000000e+00
1.244313e-01 4.039447e-01 0.000000e+00
1.244266e-01 4.252909e-01 0.000000e+00
1.659025e-01 4.039718e-01 0.000000e+00
1.658963e-01 4.253056e-01 0.000000e+00
1.244266e-01 4.252909e-01 0.000000e+00
1.244270e-01 4.503906e-01 0.000000e+00
1.658963e-01 4.253056e-01 0.000000e+00
1.658969e-01 4.503906e-01 0.000000e+00
1.659025e-01 4.039718e-01 0.000000e+00
1.658963e-01 4.253056e-01 0.000000e+00
2.073687e-01 4.040067e-01 0.000000e+00
2.073610e-01 4.253245e-01 0.000000e+00
1.658963e-01 4.253056e-01 0.000000e+00
1.658969e-01 4.503906e-01 0.000000e+00
2.073610e-01 4.253245e-01 0.000000e+00
2.073617e-01 4.503906e-01 0.000000e+00
2.073687e-01 4.040067e-01 0.000000e+00
2.073610e-01 4.253245e-01 0.000000e+00
2.488286e-01 4.040493e-01 0.000000e+00
2.488194e-01 4.253475e-01 0.000000e+00
2.073610e-01 4.253245e-01 0.000000e+00
2.073617e-01 4.503906e-01 0.000000e+00
2.488194e-01 4.253475e-01 0.000000e+00
2.488203e-01 4.503906e-01 0.000000e+00
2.488286e-01 4.040493e-01 0.000000e+00
2.488194e-01 4.253475e-01 0.000000e+00
2.902808e-01 4.040995e-01 0.000000e+00
2.902701e-01 4.253747e-01 0.000000e+00
2.488194e-01 4.253475e-01 0.000000e+00
2.488203e-01 4.503906e-01 0.000000e+00
2.902701e-01 4.253747e-01 0.000000e+00
2.902713e-01 4.503906e-01 0.000000e+00
2.902808e-01 4.040995e-01 0.000000e+00
2.902701e-01 4.253747e-01 0.000000e+00
3.317240e-01 4.041574e-01 0.000000e+00
3.317120e-01 4.254060e-01 0.000000e+00
2.902701e-01 4.253747e-01 0.000000e+00
2.902713e-01 4.503906e-01 0.000000e+00
3.317120e-01 4.254060e-01 0.000000e+00
3.317134e-01 4.503906e-01 0.000000e+00
3.317240e-01 4.041574e-01 0.000000e+00
3.317120e-01 4.254060e-01 0.000000e+00
3.731570e-01 4.042228e-01 0.000000e+00
3.731436e-01 4.254414e-01 0.000000e+00
3.317120e-01 4.254060e-01 0.000000e+00
3.317134e-01 4.503906e-01 0.000000e+00
3.731436e-01 4.254414e-01 0.000000e+00
3.731453e-01 4.503906e-01 0.000000e+00
3.731570e-01 4.042228e-01 0.000000e+00
3.731436e-01 4.254414e-01 0.000000e+00
4.145783e-01 4.042958e-01 0.000000e+00
4.145636e-01 4.254809e-01 0.000000e+00
3.731436e-01 4.254414e-01 0.000000e+00
3.731453e-01 4.503906e-01 0.000000e+00
4.145636e-01 4.254809e-01 0.000000e+00
4.145658e-01 4.503906e-01 0.000000e+00
4.145783e-01 4.042958e-01 0.000000e+00
4.145636e-01 4.254809e-01 0.000000e+00
4.559865e-01 4.043764e-01 0.000000e+00
4.559707e-01 4.255245e-01 0.000000e+00
4.145636e-01 4.254809e-01 0.000000e+00
4.145658e-01 4.503906e-01 0.000000e+00
4.559707e-01 4.255245e-01 0.000000e+00
4.559733e-01 4.503906e-01 0.000000e+00
4.559865e-01 4.043764e-01 0.000000e+00
4.559707e-01 4.255245e-01 0.000000e+00
4.973803e-01 4.044643e-01 0.000000e+00
4.973634e-01 4.255721e-01 0.000000e+00
4.559707e-01 4.255245e-01 0.000000e+00
4.559733e-01 4.503906e-01 0.000000e+00
4.973634e-01 4.255721e-01 0.000000e+00
4.973665e-01 4.503906e-01 0.000000e+00
4.973803e-01 4.044643e-01 0.000000e+00
4.973634e-01 4.255721e-01 0.000000e+00
5.387582e-01 4.045597e-01 0.000000e+00
5.387403e-01 4.256237e-01 0.000000e+00
4.973634e-01 4.255721e-01 0.000000e+00
4.973665e-01 4.503906e-01 0.000000e+00
5.387403e-01 4.256237e-01 0.000000e+00
5.387440e-01 4.503906e-01 0.000000e+00
5.387582e-01 4.045597e-01 0.000000e+00
5.387403e-01 4.256237e-01 0.000000e+00
5.801187e-01 4.046624e-01 0.000000e+00
5.801000e-01 4.256793e-01 0.000000e+00
5.387403e-01 4.256237e-01 0.000000e+00
5.387440e-01 4.503906e-01 0.000000e+00
5.801000e-01 4.256793e-01 0.000000e+00
5.801044e-01 4.503906e-01 0.000000e+00
5.801187e-01 4.046624e-01 0.000000e+00
5.801000e-01 4.256793e-01 0.000000e+00
6.214603e-01 4.047723e-01 0.000000e+00
6.214408e-01 4.257388e-01 0.000000e+00
5.801000e-01 4.256793e-01 0.000000e+00
5.801044e-01 4.503906e-01 0.000000e+00
6.214408e-01 4.257388e-01 0.000000e+00
6.214462e-01 4.503906e-01 0.000000e+00
6.214603e-01 4.047723e-01 0.000000e+00
6.214408e-01 4.257388e-01 0.000000e+00
6.627814e-01 4.048895e-01 0.000000e+00
6.627614e-01 4.258022e-01 0.000000e+00
6.214408e-01 4.257388e-01 0.000000e+00
6.214462e-01 4.503906e-01 0.000000e+00
6.627614e-01 4.258022e-01 0.000000e+00
6.627678e-01 4.503906e-01 0.000000e+00
6.627814e-01 4.048895e-01 0.000000e+00
6.627614e-01 4.258022e-01 0.000000e+00
7.040804e-01 4.050137e-01 0.000000e+00
7.040601e-01 4.258695e-01 0.000000e+00
6.627614e-01 4.258022e-01 0.000000e+00
6.627678e-01 4.503906e-01 0.000000e+00
7.040601e-01 4.258695e-01 0.000000e+00
7.040677e-01 4.503906e-01 0.000000e+00
7.040804e-01 4.050137e-01 0.000000e+00
7.040601e-01 4.258695e-01 0.000000e+00
7.453557e-01 4.051450e-01 0.000000e+00
7.453353e-01 4.259406e-01 0.000000e+00
7.040601e-01 4.258695e-01 0.000000e+00
7.040677e-01 4.503906e-01 0.000000e+00
7.453353e-01 4.259406e-01 0.000000e+00
7.453443e-01 4.503906e-01 0.000000e+00
7.453557e-01 4.051450e-01 0.000000e+00
7.453353e-01 4.259406e-01 0.000000e+00
7.866055e-01 4.052832e-01 0.000000e+00
7.865853e-01 4.260154e-01 0.000000e+00
7.453353e-01 4.259406e-01 0.000000e+00
7.453443e-01 4.503906e-01 0.000000e+00
7.865853e-01 4.260154e-01 0.000000e+00
7.865960e-01 4.503906e-01 0.000000e+00
7.866055e-01 4.052832e-01 0.000000e+00
7.865853e-01 4.260154e-01 0.000000e+00
8.278280e-01 4.054282e-01 0.000000e+00
8.278083e-01 4.260940e-01 0.000000e+00
7.865853e-01 4.260154e-01 0.000000e+00
7.865960e-01 4.503906e-01 0.000000e+00
8.278083e-01 4.260940e-01 0.000000e+00
8.278212e-01 4.503906e-01 0.000000e+00
8.278280e-01 4.054282e-01 0.000000e+00
8.278083e-01 4.260940e-01 0.000000e+00
8.690213e-01 4.055800e-01 0.000000e+00
8.690027e-01 4.261763e-01 0.000000e+00
8.278083e-01 4.260940e-01 0.000000e+00
8.278212e-01 4.503906e-01 0.000000e+00
8.690027e-01 4.261763e-01 0.000000e+00
8.690180e-01 4.503906e-01 0.000000e+00
8.690213e-01 4.055800e-01 0.000000e+00
8.690027e-01 4.261763e-01 0.000000e+00
9.101837e-01 4.057384e-01 0.000000e+00
9.101666e-01 4.262622e-01 0.000000e+00
8.690027e-01 4.261763e-01 0.000000e+00
8.690180e-01 4.503906e-01 0.000000e+00
9.101666e-01 4.262622e-01 0.000000e+00
9.101849e-01 4.503906e-01 0.000000e+00
9.101837e-01 4.057384e-01 0.000000e+00
9.101666e-01 4.262622e-01 0.000000e+00
9.513129e-01 4.059035e-01 0.000000e+00
9.512981e-01 4.263517e-01 0.000000e+00
9.101666e-01 4.262622e-01 0.000000e+00
9.101849e-01 4.503906e-01 0.000000e+00
9.512981e-01 4.263517e-01 0.000000e+00
9.513201e-01 4.503906e-01 0.000000e+00
9.513129e-01 4.059035e-01 0.000000e+00
9.512981e-01 4.263517e-01 0.000000e+00
9.924069e-01 4.060749e-01 0.000000e+00
9.923952e-01 4.264448e-01 0.000000e+00
9.512981e-01 4.263517e-01 0.000000e+00
9.513201e-01 4.503906e-01 0.000000e+00
9.923952e-01 4.264448e-01 0.000000e+00
9.924218e-01 4.503906e-01 0.000000e+00
9.924069e-01 4.060749e-01 0.000000e+00
9.923952e-01 4.264448e-01 0.000000e+00
1.033463e+00 4.062528e-01 0.000000e+00
1.033456e+00 4.265415e-01 0.000000e+00
9.923952e-01 4.264448e-01 0.000000e+00
9.924218e-01 4.503906e-01 0.000000e+00
1.033456e+00 4.265415e-01 0.000000e+00
1.033488e+00 4.503906e-01 0.000000e+00
1.033463e+00 4.062528e-01 0.000000e+00
1.033456e+00 4.265415e-01 0.000000e+00
1.074480e+00 4.064368e-01 0.000000e+00
1.074478e+00 4.266416e-01 0.000000e+00
1.033456e+00 4.265415e-01 0.000000e+00
1.033488e+00 4.503906e-01 0.000000e+00
1.074478e+00 4.266416e-01 0.000000e+00
1.074517e+00 4.503906e-01 0.000000e+00
1.074480e+00 4.064368e-01 0.000000e+00
1.074478e+00 4.266416e-01 0.000000e+00
1.115455e+00 4.066271e-01 0.000000e+00
1.115460e+00 4.267452e-01 0.000000e+00
1.074478e+00 4.266416e-01 0.000000e+00
1.074517e+00 4.503906e-01 0.000000e+00
1.115460e+00 4.267452e-01 0.000000e+00
1.115508e+00 4.503906e-01 0.000000e+00
1.115455e+00 4.066271e-01 0.000000e+00
1.115460e+00 4.267452e-01 0.000000e+00
1.156384e+00 4.068233e-01 0.000000e+00
1.156399e+00 4.268523e-01 0.000000e+00
1.115460e+00 4.267452e-01 0.000000e+00
1.115508e+00 4.503906e-01 0.000000e+00
1.156399e+00 4.268523e-01 0.000000e+00
1.156458e+00 4.503906e-01 0.000000e+00
1.156384e+00 4.068233e-01 0.000000e+00
1.156399e+00 4.268523e-01 0.000000e+00
1.197266e+00 4.070256e-01 0.000000e+00
1.197293e+00 4.269629e-01 0.000000e+00
1.156399e+00 4.268523e-01 0.000000e+00
1.156458e+00 4.503906e-01 0.000000e+00
1.197293e+00 4.269629e-01 0.000000e+00
1.197366e+00 4.503906e-01 0.000000e+00
1.197266e+00 4.070256e-01 0.000000e+00
1.197293e+00 4.269629e-01 0.000000e+00
1.238097e+00 4.072337e-01 0.000000e+00
1.238140e+00 4.270771e-01 0.000000e+00
1.197293e+00 4.269629e-01 0.000000e+00
1.197366e+00 4.503906e-01 0.000000e+00
1.238140e+00 4.270771e-01 0.000000e+00
1.238230e+00 4.503906e-01 0.000000e+00
1.238097e+00 4.072337e-01 0.000000e+00
1.238140e+00 4.270771e-01 0.000000e+00
1.278873e+00 4.074475e-01 0.000000e+00
1.278938e+00 4.271947e-01 0.000000e+00
1.238140e+00 4.270771e-01 0.000000e+00
1.238230e+00 4.503906e-01 0.000000e+00
1.278938e+00 4.271947e-01 0.000000e+00
1.279050e+00 4.503906e-01 0.000000e+00
1.278873e+00 4.074475e-01 0.000000e+00
[...]
<PointData>
<DataArray type="Float32" Name="V1" format="ascii">
3.686086e+02
1.530637e+02
3.687477e+02
1.532029e+02
1.581653e+02
4.821764e+01
1.582211e+02
4.827351e+01
3.687896e+02
1.531180e+02
3.691265e+02
1.534549e+02
1.582688e+02
4.825348e+01
1.584271e+02
4.841181e+01
3.692394e+02
1.533113e+02
3.697885e+02
1.538604e+02
1.585168e+02
4.836545e+01
1.587888e+02
4.863742e+01
3.699685e+02
1.536545e+02
3.707315e+02
1.544175e+02
1.589187e+02
4.856298e+01
1.593039e+02
4.894814e+01
3.709780e+02
1.541482e+02
3.719577e+02
1.551280e+02
1.594750e+02
4.884612e+01
1.599739e+02
4.934500e+01
3.722706e+02
1.547937e+02
3.734703e+02
1.559934e+02
1.601871e+02
4.921547e+01
1.608008e+02
4.982911e+01
3.738497e+02
1.555928e+02
3.752728e+02
1.570159e+02
1.610568e+02
4.967197e+01
1.617867e+02
5.040183e+01
3.757194e+02
1.565478e+02
3.773698e+02
1.581982e+02
1.620863e+02
5.021681e+01
1.629343e+02
5.106478e+01
3.778844e+02
1.576611e+02
3.797667e+02
1.595434e+02
1.632783e+02
5.085148e+01
1.642466e+02
5.181978e+01
3.803505e+02
1.589358e+02
3.824695e+02
1.610549e+02
1.646359e+02
5.157770e+01
1.657271e+02
5.266893e+01
3.831238e+02
1.603754e+02
3.854854e+02
1.627369e+02
1.661628e+02
5.239750e+01
1.673799e+02
5.361465e+01
3.862118e+02
1.619836e+02
3.888221e+02
1.645939e+02
1.678630e+02
5.331317e+01
1.692094e+02
5.465959e+01
3.896223e+02
1.637649e+02
3.924884e+02
1.666310e+02
1.697413e+02
5.432732e+01
1.712208e+02
5.580678e+01
3.933645e+02
1.657242e+02
3.964942e+02
1.688539e+02
1.718028e+02
5.544286e+01
1.734195e+02
5.705958e+01
3.974482e+02
1.678669e+02
4.008502e+02
1.712689e+02
1.740531e+02
5.666302e+01
1.758118e+02
5.842168e+01
4.018845e+02
1.701992e+02
4.055681e+02
1.738827e+02
1.764988e+02
5.799148e+01
1.784045e+02
5.989723e+01
4.066854e+02
1.727275e+02
4.106610e+02
1.767031e+02
1.791467e+02
5.943218e+01
1.812053e+02
6.149072e+01
4.118640e+02
1.754594e+02
4.161428e+02
1.797382e+02
1.820046e+02
6.098961e+01
1.842222e+02
6.320722e+01
4.174347e+02
1.784028e+02
4.220290e+02
1.829971e+02
1.850809e+02
6.266864e+01
1.874645e+02
6.505223e+01
4.234129e+02
1.815665e+02
4.283361e+02
1.864897e+02
1.883849e+02
6.447468e+01
1.909420e+02
6.703182e+01
4.298155e+02
1.849602e+02
4.350821e+02
1.902268e+02
1.919266e+02
6.641370e+01
1.946657e+02
6.915277e+01
4.366607e+02
1.885945e+02
4.422864e+02
1.942202e+02
1.957172e+02
6.849232e+01
1.986474e+02
7.142250e+01
4.439680e+02
1.924809e+02
4.499697e+02
1.984826e+02
1.997687e+02
7.071784e+01
2.029001e+02
7.384927e+01
4.517584e+02
1.966321e+02
4.581544e+02
2.030281e+02
2.040944e+02
7.309839e+01
2.074382e+02
7.644223e+01
4.600543e+02
2.010618e+02
4.668643e+02
2.078718e+02
2.087087e+02
7.564298e+01
2.122774e+02
7.921168e+01
4.688794e+02
2.057852e+02
4.761246e+02
2.130304e+02
2.136275e+02
7.836175e+01
2.174348e+02
8.216907e+01
4.782590e+02
2.108189e+02
4.859620e+02
2.185219e+02
2.188681e+02
8.126604e+01
2.229295e+02
8.532735e+01
4.882194e+02
2.161811e+02
4.964045e+02
2.243661e+02
2.244497e+02
8.436870e+01
2.287823e+02
8.870128e+01
4.987883e+02
2.218920e+02
5.074809e+02
2.305846e+02
2.303933e+02
8.768428e+01
2.350166e+02
9.230759e+01
5.099936e+02
2.279737e+02
5.192208e+02
2.372009e+02
2.367221e+02
9.122956e+01
2.416582e+02
9.616572e+01
5.218639e+02
2.344508e+02
5.316539e+02
2.442408e+02
2.434617e+02
9.502388e+01
2.487360e+02
1.002982e+02
5.344269e+02
2.413507e+02
5.448089e+02
2.517326e+02
2.506407e+02
9.908983e+01
2.562824e+02
1.047316e+02
5.477089e+02
2.487039e+02
5.587124e+02
2.597074e+02
2.582910e+02
1.034541e+02
2.643344e+02
1.094974e+02
5.617330e+02
2.565450e+02
5.733873e+02
2.681994e+02
2.664485e+02
1.081483e+02
2.729337e+02
1.146335e+02
5.765167e+02
2.649129e+02
5.888497e+02
2.772460e+02
2.751535e+02
1.132111e+02
2.821286e+02
1.201862e+02
5.920696e+02
2.738522e+02
6.051062e+02
2.868887e+02
2.844519e+02
1.186891e+02
2.919752e+02
1.262124e+02
6.083886e+02
2.834139e+02
6.221478e+02
2.971731e+02
2.943964e+02
1.246406e+02
3.025391e+02
1.327833e+02
6.254523e+02
2.936574e+02
6.399443e+02
3.081494e+02
3.050473e+02
1.311385e+02
3.138981e+02
1.399893e+02
6.432136e+02
3.046518e+02
6.584341e+02
3.198723e+02
3.164745e+02
1.382758e+02
3.261451e+02
1.479465e+02
6.615896e+02
3.164778e+02
6.775123e+02
3.324005e+02
3.287587e+02
1.461731e+02
3.393923e+02
1.568067e+02
6.804477e+02
3.292298e+02
6.970142e+02
3.457962e+02
3.419923e+02
1.549894e+02
3.537752e+02
1.667723e+02
6.995890e+02
3.430163e+02
7.166949e+02
3.601223e+02
3.562772e+02
1.649401e+02
3.694561e+02
1.781189e+02
7.187237e+02
3.579614e+02
7.362044e+02
3.754422e+02
3.717144e+02
1.763256e+02
3.866230e+02
1.912343e+02
7.374339e+02
3.742129e+02
7.550545e+02
3.918336e+02
3.883649e+02
1.895890e+02
4.054673e+02
2.066914e+02
7.550789e+02
3.920049e+02
7.725683e+02
4.094943e+02
4.061243e+02
2.054594e+02
4.260959e+02
2.254310e+02
7.704125e+02
4.120259e+02
7.878283e+02
4.294417e+02
4.244014e+02
2.254348e+02
4.484246e+02
2.494579e+02
7.797148e+02
4.372716e+02
8.001277e+02
4.576845e+02
4.383740e+02
2.562898e+02
4.732203e+02
2.911361e+02
7.907931e+02
4.685473e+02
8.104942e+02
4.882483e+02
4.666220e+02
2.977239e+02
4.896921e+02
3.207940e+02
8.080394e+02
4.905531e+02
8.301085e+02
5.126223e+02
4.894787e+02
3.208584e+02
5.110375e+02
3.424172e+02
8.314879e+02
5.110394e+02
8.557022e+02
5.352537e+02
5.127179e+02
3.413281e+02
5.332757e+02
3.618860e+02
8.590053e+02
5.317182e+02
8.844510e+02
5.571639e+02
5.360873e+02
3.600152e+02
5.555764e+02
3.795043e+02
8.888558e+02
5.524599e+02
9.147008e+02
5.783048e+02
5.590129e+02
3.771902e+02
5.773522e+02
3.955295e+02
9.197237e+02
5.729298e+02
9.452520e+02
5.984580e+02
5.811376e+02
3.929726e+02
5.982415e+02
4.100765e+02
9.505531e+02
5.927678e+02
9.751552e+02
6.173699e+02
6.021637e+02
4.074248e+02
6.179440e+02
4.232051e+02
9.804778e+02
6.116411e+02
1.003641e+03
6.348041e+02
6.218351e+02
4.205744e+02
6.362044e+02
4.349437e+02
1.008783e+03
6.292586e+02
1.030079e+03
6.505550e+02
6.399300e+02
4.324267e+02
6.528060e+02
4.453027e+02
1.034878e+03
6.453721e+02
1.053957e+03
6.644506e+02
6.562585e+02
4.429730e+02
6.675669e+02
4.542813e+02
1.058283e+03
6.597746e+02
1.074859e+03
6.763502e+02
6.706612e+02
4.521966e+02
6.803371e+02
4.618725e+02
1.078608e+03
6.722961e+02
1.092453e+03
6.861419e+02
6.830060e+02
4.600773e+02
6.909951e+02
4.680664e+02
1.095543e+03
6.827995e+02
1.106484e+03
6.937397e+02
6.931869e+02
4.665944e+02
6.994453e+02
4.728528e+02
1.108852e+03
6.911768e+02
1.116756e+03
6.990807e+02
7.011210e+02
4.717289e+02
7.056150e+02
4.762228e+02
1.118359e+03
6.973461e+02
1.123137e+03
7.021236e+02
7.067469e+02
4.754644e+02
7.094527e+02
4.781702e+02
1.123946e+03
7.012486e+02
1.125544e+03
7.028469e+02
7.100231e+02
4.777884e+02
7.109265e+02
4.786918e+02
</DataArray>
<DataArray type="Float32" Name="V2" format="ascii">
4.039049e-01
4.252730e-01
4.048221e-01
4.261761e-01
4.252730e-01
4.503906e-01
4.261761e-01
4.512847e-01
4.048221e-01
4.261761e-01
4.075582e-01
4.288867e-01
4.261761e-01
4.512847e-01
4.288867e-01
4.539656e-01
4.075582e-01
4.288867e-01
4.121140e-01
4.334002e-01
4.288867e-01
4.539656e-01
4.334002e-01
4.584297e-01
4.121140e-01
4.334002e-01
4.184830e-01
4.397101e-01
4.334002e-01
4.584297e-01
4.397101e-01
4.646705e-01
4.184830e-01
4.397101e-01
4.266563e-01
4.478077e-01
4.397101e-01
4.646705e-01
4.478077e-01
4.726794e-01
4.266563e-01
4.478077e-01
4.366223e-01
4.576813e-01
4.478077e-01
4.726794e-01
4.576813e-01
4.824449e-01
4.366223e-01
4.576813e-01
4.483670e-01
4.693172e-01
4.576813e-01
4.824449e-01
4.693172e-01
4.939533e-01
4.483670e-01
4.693172e-01
4.618738e-01
4.826987e-01
4.693172e-01
4.939533e-01
4.826987e-01
5.071882e-01
4.618738e-01
4.826987e-01
4.771233e-01
4.978070e-01
4.826987e-01
5.071882e-01
4.978070e-01
5.221310e-01
4.771233e-01
4.978070e-01
4.940942e-01
5.146206e-01
4.978070e-01
5.221310e-01
5.146206e-01
5.387605e-01
4.940942e-01
5.146206e-01
5.127621e-01
5.331155e-01
5.146206e-01
5.387605e-01
5.331155e-01
5.570530e-01
5.127621e-01
5.331155e-01
5.331005e-01
5.532656e-01
5.331155e-01
5.570530e-01
5.532656e-01
5.769824e-01
5.331005e-01
5.532656e-01
5.550805e-01
5.750420e-01
5.532656e-01
5.769824e-01
5.750420e-01
5.985204e-01
5.550805e-01
5.750420e-01
5.786705e-01
5.984136e-01
5.750420e-01
5.985204e-01
5.984136e-01
6.216361e-01
5.786705e-01
5.984136e-01
6.038369e-01
6.233469e-01
5.984136e-01
6.216361e-01
6.233469e-01
6.462966e-01
6.038369e-01
6.233469e-01
6.305434e-01
6.498062e-01
6.233469e-01
6.462966e-01
6.498062e-01
6.724663e-01
6.305434e-01
6.498062e-01
6.587516e-01
6.777534e-01
6.498062e-01
6.724663e-01
6.777534e-01
7.001076e-01
6.587516e-01
6.777534e-01
6.884207e-01
7.071480e-01
6.777534e-01
7.001076e-01
7.071480e-01
7.291807e-01
6.884207e-01
7.071480e-01
7.195078e-01
7.379477e-01
7.071480e-01
7.291807e-01
7.379477e-01
7.596434e-01
7.195078e-01
7.379477e-01
7.519678e-01
7.701076e-01
7.379477e-01
7.596434e-01
7.701076e-01
7.914515e-01
7.519678e-01
7.701076e-01
7.857532e-01
8.035809e-01
7.701076e-01
7.914515e-01
8.035809e-01
8.245587e-01
7.857532e-01
8.035809e-01
8.208147e-01
8.383186e-01
8.035809e-01
8.245587e-01
8.383186e-01
8.589167e-01
8.208147e-01
8.383186e-01
8.571007e-01
8.742697e-01
8.383186e-01
8.589167e-01
8.742697e-01
8.944750e-01
8.571007e-01
8.742697e-01
8.945576e-01
9.113814e-01
8.742697e-01
8.944750e-01
9.113814e-01
9.311813e-01
8.945576e-01
9.113814e-01
9.331298e-01
9.495986e-01
9.113814e-01
9.311813e-01
9.495986e-01
9.689814e-01
9.331298e-01
9.495986e-01
9.727600e-01
9.888646e-01
9.495986e-01
9.689814e-01
9.888646e-01
1.007819e+00
9.727600e-01
9.888646e-01
1.013389e+00
1.029121e+00
9.888646e-01
1.007819e+00
1.029121e+00
1.047637e+00
1.013389e+00
1.029121e+00
1.054954e+00
1.070307e+00
1.029121e+00
1.047637e+00
1.070307e+00
1.088376e+00
1.054954e+00
1.070307e+00
1.097394e+00
1.112361e+00
1.070307e+00
1.088376e+00
1.112361e+00
1.129975e+00
1.097394e+00
1.112361e+00
1.140643e+00
1.155219e+00
1.112361e+00
1.129975e+00
1.155219e+00
1.172370e+00
1.140643e+00
1.155219e+00
1.184635e+00
1.198816e+00
1.155219e+00
1.172370e+00
1.198816e+00
1.215500e+00
1.184635e+00
1.198816e+00
1.229300e+00
1.243085e+00
1.198816e+00
1.215500e+00
1.243085e+00
1.259297e+00
1.229300e+00
1.243085e+00
1.274569e+00
1.287959e+00
1.243085e+00
1.259297e+00
1.287959e+00
1.303698e+00
1.274569e+00
1.287959e+00
1.320370e+00
1.333367e+00
1.287959e+00
1.303698e+00
1.333367e+00
1.348635e+00
1.320370e+00
1.333367e+00
1.366628e+00
1.379240e+00
1.333367e+00
1.348635e+00
1.379240e+00
1.394040e+00
1.366628e+00
1.379240e+00
1.413268e+00
1.425506e+00
1.379240e+00
1.394040e+00
1.425506e+00
1.439848e+00
1.413268e+00
1.425506e+00
1.460211e+00
1.472092e+00
1.425506e+00
1.439848e+00
1.472092e+00
1.485989e+00
1.460211e+00
1.472092e+00
1.507377e+00
1.518925e+00
1.472092e+00
1.485989e+00
1.518925e+00
1.532400e+00
1.507377e+00
1.518925e+00
1.554682e+00
1.565932e+00
1.518925e+00
1.532400e+00
1.565932e+00
1.579013e+00
1.554682e+00
1.565932e+00
1.602039e+00
1.613037e+00
1.565932e+00
1.579013e+00
1.613037e+00
1.625769e+00
1.602039e+00
1.613037e+00
1.649357e+00
1.660166e+00
1.613037e+00
1.625769e+00
1.660166e+00
1.672607e+00
1.649357e+00
1.660166e+00
1.696539e+00
1.707242e+00
1.660166e+00
1.672607e+00
1.707242e+00
1.719477e+00
1.696539e+00
1.707242e+00
1.743482e+00
1.754189e+00
1.707242e+00
1.719477e+00
1.754189e+00
1.766336e+00
1.743482e+00
1.754189e+00
1.790071e+00
1.800924e+00
1.754189e+00
1.766336e+00
1.800924e+00
1.813156e+00
1.790071e+00
1.800924e+00
1.836168e+00
1.847356e+00
1.800924e+00
1.813156e+00
1.847356e+00
1.859936e+00
1.836168e+00
1.847356e+00
1.881579e+00
1.893335e+00
1.847356e+00
1.859936e+00
1.893335e+00
1.906686e+00
1.881579e+00
1.893335e+00
1.925996e+00
1.938364e+00
1.893335e+00
1.906686e+00
1.938364e+00
1.952510e+00
1.925996e+00
1.938364e+00
1.968110e+00
1.980656e+00
1.938364e+00
1.952510e+00
1.980656e+00
1.994822e+00
1.968110e+00
1.980656e+00
2.007153e+00
2.020061e+00
1.980656e+00
1.994822e+00
2.020061e+00
2.034653e+00
2.007153e+00
2.020061e+00
2.043114e+00
2.056543e+00
2.020061e+00
2.034653e+00
2.056543e+00
2.071700e+00
2.043114e+00
2.056543e+00
2.076040e+00
2.090043e+00
2.056543e+00
2.071700e+00
2.090043e+00
2.105819e+00
2.076040e+00
2.090043e+00
2.105981e+00
2.120553e+00
2.090043e+00
2.105819e+00
2.120553e+00
2.136945e+00
2.105981e+00
2.120553e+00
2.132999e+00
2.148103e+00
2.120553e+00
2.136945e+00
2.148103e+00
2.165077e+00
2.132999e+00
2.148103e+00
2.157163e+00
2.172747e+00
2.148103e+00
2.165077e+00
2.172747e+00
2.190247e+00
2.157163e+00
2.172747e+00
2.178547e+00
2.194550e+00
2.172747e+00
2.190247e+00
2.194550e+00
2.212515e+00
2.178547e+00
2.194550e+00
2.197223e+00
2.213583e+00
2.194550e+00
2.212515e+00
2.213583e+00
2.231948e+00
2.197223e+00
2.213583e+00
2.213259e+00
2.229917e+00
2.213583e+00
2.231948e+00
2.229917e+00
2.248617e+00
2.213259e+00
2.229917e+00
2.226717e+00
2.243618e+00
2.229917e+00
2.248617e+00
2.243618e+00
2.262593e+00
2.226717e+00
2.243618e+00
2.237652e+00
2.254744e+00
2.243618e+00
2.262593e+00
2.254744e+00
2.273936e+00
2.237652e+00
2.254744e+00
2.246108e+00
2.263345e+00
2.254744e+00
2.273936e+00
2.263345e+00
2.282700e+00
2.246108e+00
2.263345e+00
2.252123e+00
2.269460e+00
2.263345e+00
2.282700e+00
2.269460e+00
2.288930e+00
2.252123e+00
2.269460e+00
2.255721e+00
2.273117e+00
2.269460e+00
2.288930e+00
2.273117e+00
2.292655e+00
2.255721e+00
2.273117e+00
2.256919e+00
2.274334e+00
2.273117e+00
2.292655e+00
2.274334e+00
2.293894e+00
</DataArray>
<DataArray type="Float32" Name="V3" format="ascii">
0.000000e+00
0.000000e+00
3.139588e-02
3.086183e-02
0.000000e+00
0.000000e+00
3.086183e-02
3.023586e-02
3.139588e-02
3.086183e-02
6.271908e-02
6.165151e-02
3.086183e-02
3.023586e-02
6.165151e-02
6.040016e-02
6.271908e-02
6.165151e-02
9.389652e-02
9.229664e-02
6.165151e-02
6.040016e-02
9.229664e-02
9.042135e-02
9.389652e-02
9.229664e-02
1.248555e-01
1.227252e-01
9.229664e-02
9.042135e-02
1.227252e-01
1.202281e-01
1.248555e-01
1.227252e-01
1.555237e-01
1.528653e-01
1.227252e-01
1.202281e-01
1.528653e-01
1.497492e-01
1.555237e-01
1.528653e-01
1.858290e-01
1.826455e-01
1.528653e-01
1.497492e-01
1.826455e-01
1.789139e-01
1.858290e-01
1.826455e-01
2.156996e-01
2.119947e-01
1.826455e-01
1.789139e-01
2.119947e-01
2.076519e-01
2.156996e-01
2.119947e-01
2.450645e-01
2.408424e-01
2.119947e-01
2.076519e-01
2.408424e-01
2.358932e-01
2.450645e-01
2.408424e-01
2.738531e-01
2.691185e-01
2.408424e-01
2.358932e-01
2.691185e-01
2.635685e-01
2.738531e-01
2.691185e-01
3.019954e-01
2.967536e-01
2.691185e-01
2.635685e-01
2.967536e-01
2.906090e-01
3.019954e-01
2.967536e-01
3.294222e-01
3.236792e-01
2.967536e-01
2.906090e-01
3.236792e-01
3.169469e-01
3.294222e-01
3.236792e-01
3.560651e-01
3.498274e-01
3.236792e-01
3.169469e-01
3.498274e-01
3.425149e-01
3.560651e-01
3.498274e-01
3.818567e-01
3.751312e-01
3.498274e-01
3.425149e-01
3.751312e-01
3.672468e-01
3.818567e-01
3.751312e-01
4.067306e-01
3.995247e-01
3.751312e-01
3.672468e-01
3.995247e-01
3.910772e-01
4.067306e-01
3.995247e-01
4.306211e-01
4.229431e-01
3.995247e-01
3.910772e-01
4.229431e-01
4.139417e-01
4.306211e-01
4.229431e-01
4.534641e-01
4.453225e-01
4.229431e-01
4.139417e-01
4.453225e-01
4.357773e-01
4.534641e-01
4.453225e-01
4.751965e-01
4.666003e-01
4.453225e-01
4.357773e-01
4.666003e-01
4.565219e-01
4.751965e-01
4.666003e-01
4.957564e-01
4.867152e-01
4.666003e-01
4.565219e-01
4.867152e-01
4.761148e-01
4.957564e-01
4.867152e-01
5.150835e-01
5.056073e-01
4.867152e-01
4.761148e-01
5.056073e-01
4.944966e-01
5.150835e-01
5.056073e-01
5.331187e-01
5.232180e-01
5.056073e-01
4.944966e-01
5.232180e-01
5.116093e-01
5.331187e-01
5.232180e-01
5.498046e-01
5.394903e-01
5.232180e-01
5.116093e-01
5.394903e-01
5.273964e-01
5.498046e-01
5.394903e-01
5.650851e-01
5.543687e-01
5.394903e-01
5.273964e-01
5.543687e-01
5.418030e-01
5.650851e-01
5.543687e-01
5.789061e-01
5.677995e-01
5.543687e-01
5.418030e-01
5.677995e-01
5.547758e-01
5.789061e-01
5.677995e-01
5.912149e-01
5.797305e-01
5.677995e-01
5.547758e-01
5.797305e-01
5.662633e-01
5.912149e-01
5.797305e-01
6.019608e-01
5.901113e-01
5.797305e-01
5.662633e-01
5.901113e-01
5.762156e-01
6.019608e-01
5.901113e-01
6.110948e-01
5.988935e-01
5.901113e-01
5.762156e-01
5.988935e-01
5.845850e-01
6.110948e-01
5.988935e-01
6.185699e-01
6.060306e-01
5.988935e-01
5.845850e-01
6.060306e-01
5.913253e-01
6.185699e-01
6.060306e-01
6.243408e-01
6.114778e-01
6.060306e-01
5.913253e-01
6.114778e-01
5.963928e-01
6.243408e-01
6.114778e-01
6.283645e-01
6.151927e-01
6.114778e-01
5.963928e-01
6.151927e-01
5.997454e-01
6.283645e-01
6.151927e-01
6.306000e-01
6.171349e-01
6.151927e-01
5.997454e-01
6.171349e-01
6.013437e-01
6.306000e-01
6.171349e-01
6.310081e-01
6.172659e-01
6.171349e-01
6.013437e-01
6.172659e-01
6.011502e-01
6.310081e-01
6.172659e-01
6.295520e-01
6.155499e-01
6.172659e-01
6.011502e-01
6.155499e-01
5.991298e-01
6.295520e-01
6.155499e-01
6.261969e-01
6.119528e-01
6.155499e-01
5.991298e-01
6.119528e-01
5.952502e-01
6.261969e-01
6.119528e-01
6.209103e-01
6.064432e-01
6.119528e-01
5.952502e-01
6.064432e-01
5.894812e-01
6.209103e-01
6.064432e-01
6.136616e-01
5.989921e-01
6.064432e-01
5.894812e-01
5.989921e-01
5.817956e-01
6.136616e-01
5.989921e-01
6.044226e-01
5.895727e-01
5.989921e-01
5.817956e-01
5.895727e-01
5.721690e-01
6.044226e-01
5.895727e-01
5.931670e-01
5.781606e-01
5.895727e-01
5.721690e-01
5.781606e-01
5.605798e-01
5.931670e-01
5.781606e-01
5.798707e-01
5.647340e-01
5.781606e-01
5.605798e-01
5.647340e-01
5.470096e-01
5.798707e-01
5.647340e-01
5.645117e-01
5.492737e-01
5.647340e-01
5.470096e-01
5.492737e-01
5.314435e-01
5.645117e-01
5.492737e-01
5.470697e-01
5.317625e-01
5.492737e-01
5.314435e-01
5.317625e-01
5.138699e-01
5.470697e-01
5.317625e-01
5.275265e-01
5.121860e-01
5.317625e-01
5.138699e-01
5.121860e-01
4.942813e-01
5.275265e-01
5.121860e-01
5.058658e-01
4.905321e-01
5.121860e-01
4.942813e-01
4.905321e-01
4.726744e-01
5.058658e-01
4.905321e-01
4.820733e-01
4.667909e-01
4.905321e-01
4.726744e-01
4.667909e-01
4.490513e-01
4.820733e-01
4.667909e-01
4.561382e-01
4.409561e-01
4.667909e-01
4.490513e-01
4.409561e-01
4.234210e-01
4.561382e-01
4.409561e-01
4.280562e-01
4.130281e-01
4.409561e-01
4.234210e-01
4.130281e-01
3.958020e-01
4.280562e-01
4.130281e-01
3.978552e-01
3.830344e-01
4.130281e-01
3.958020e-01
3.830344e-01
3.662122e-01
3.978552e-01
3.830344e-01
3.658072e-01
3.512127e-01
3.830344e-01
3.662122e-01
3.512127e-01
3.343289e-01
3.658072e-01
3.512127e-01
3.346232e-01
3.206348e-01
3.512127e-01
3.343289e-01
3.206348e-01
3.046028e-01
3.346232e-01
3.206348e-01
3.055914e-01
2.923090e-01
3.206348e-01
3.046028e-01
2.923090e-01
2.772284e-01
3.055914e-01
2.923090e-01
2.784437e-01
2.659512e-01
2.923090e-01
2.772284e-01
2.659512e-01
2.518664e-01
2.784437e-01
2.659512e-01
2.528545e-01
2.412289e-01
2.659512e-01
2.518664e-01
2.412289e-01
2.281859e-01
2.528545e-01
2.412289e-01
2.285535e-01
2.178541e-01
2.412289e-01
2.281859e-01
2.178541e-01
2.058907e-01
2.285535e-01
2.178541e-01
2.053076e-01
1.955749e-01
2.178541e-01
2.058907e-01
1.955749e-01
1.847177e-01
2.053076e-01
1.955749e-01
1.829196e-01
1.741772e-01
1.955749e-01
1.847177e-01
1.741772e-01
1.644405e-01
1.829196e-01
1.741772e-01
1.612240e-01
1.534822e-01
1.741772e-01
1.644405e-01
1.534822e-01
1.448693e-01
1.612240e-01
1.534822e-01
1.400829e-01
1.333417e-01
1.534822e-01
1.448693e-01
1.333417e-01
1.258478e-01
1.400829e-01
1.333417e-01
1.193816e-01
1.136344e-01
1.333417e-01
1.258478e-01
1.136344e-01
1.072487e-01
1.193816e-01
1.136344e-01
9.902478e-02
9.426107e-02
1.136344e-01
1.072487e-01
9.426107e-02
8.896990e-02
9.902478e-02
9.426107e-02
7.893279e-02
7.514061e-02
9.426107e-02
8.896990e-02
7.514061e-02
7.092941e-02
7.893279e-02
7.514061e-02
5.903857e-02
5.620630e-02
7.514061e-02
7.092941e-02
5.620630e-02
5.306145e-02
5.903857e-02
5.620630e-02
3.928462e-02
3.740241e-02
5.620630e-02
5.306145e-02
3.740241e-02
3.531260e-02
3.928462e-02
3.740241e-02
1.962043e-02
1.868117e-02
3.740241e-02
3.531260e-02
1.868117e-02
1.763836e-02
1.962043e-02
1.868117e-02
0.000000e+00
0.000000e+00
1.868117e-02
1.763836e-02
0.000000e+00
0.000000e+00
</DataArray>
<DataArray type="Float32" Name="V4" format="ascii">
8.500000e-01
9.250000e-01
8.500000e-01
9.250000e-01
9.250000e-01
1.000000e+00