<?xml version="1.0"?>
<VTKFile type="UnstructuredGrid" version="0.1" byte_order="LittleEndian" compressor="vtkZLibDataCompressor">
<UnstructuredGrid>
<Piece NumberOfPoints="504" NumberOfCells="126">
<Points>
<DataArray type="Float32" NumberOfComponents="3" format="ascii">
0.000000e+00 9.429551e-01 0.000000e+00
0.000000e+00 9.927141e-01 0.000000e+00
2.708994e-02 9.429790e-01 0.000000e+00
2.732903e-02 9.927426e-01 0.000000e+00
0.000000e+00 9.927141e-01 0.000000e+00
0.000000e+00 1.050000e+00 0.000000e+00
2.732903e-02 9.927426e-01 0.000000e+00
2.754298e-02 1.050000e+00 0.000000e+00
2.708994e-02 9.429790e-01 0.000000e+00
2.732903e-02 9.927426e-01 0.000000e+00
5.416077e-02 9.430441e-01 0.000000e+00
5.466261e-02 9.928272e-01 0.000000e+00
2.732903e-02 9.927426e-01 0.000000e+00
2.754298e-02 1.050000e+00 0.000000e+00
5.466261e-02 9.928272e-01 0.000000e+00
5.510868e-02 1.050000e+00 0.000000e+00
5.416077e-02 9.430441e-01 0.000000e+00
5.466261e-02 9.928272e-01 0.000000e+00
8.119167e-02 9.431473e-01 0.000000e+00
8.200475e-02 9.929666e-01 0.000000e+00
5.466261e-02 9.928272e-01 0.000000e+00
5.510868e-02 1.050000e+00 0.000000e+00
8.200475e-02 9.929666e-01 0.000000e+00
8.272040e-02 1.050000e+00 0.000000e+00
8.119167e-02 9.431473e-01 0.000000e+00
8.200475e-02 9.929666e-01 0.000000e+00
1.081590e-01 9.432789e-01 0.000000e+00
1.093575e-01 9.931574e-01 0.000000e+00
8.200475e-02 9.929666e-01 0.000000e+00
8.272040e-02 1.050000e+00 0.000000e+00
1.093575e-01 9.931574e-01 0.000000e+00
1.104017e-01 1.050000e+00 0.000000e+00
1.081590e-01 9.432789e-01 0.000000e+00
1.093575e-01 9.931574e-01 0.000000e+00
1.350346e-01 9.434212e-01 0.000000e+00
1.367189e-01 9.933906e-01 0.000000e+00
1.093575e-01 9.931574e-01 0.000000e+00
1.104017e-01 1.050000e+00 0.000000e+00
1.367189e-01 9.933906e-01 0.000000e+00
1.381757e-01 1.050000e+00 0.000000e+00
1.350346e-01 9.434212e-01 0.000000e+00
1.367189e-01 9.933906e-01 0.000000e+00
1.617853e-01 9.435439e-01 0.000000e+00
1.640794e-01 9.936474e-01 0.000000e+00
1.367189e-01 9.933906e-01 0.000000e+00
1.381757e-01 1.050000e+00 0.000000e+00
1.640794e-01 9.936474e-01 0.000000e+00
1.660634e-01 1.050000e+00 0.000000e+00
1.617853e-01 9.435439e-01 0.000000e+00
1.640794e-01 9.936474e-01 0.000000e+00
1.883720e-01 9.435956e-01 0.000000e+00
1.914147e-01 9.938895e-01 0.000000e+00
1.640794e-01 9.936474e-01 0.000000e+00
1.660634e-01 1.050000e+00 0.000000e+00
1.914147e-01 9.938895e-01 0.000000e+00
1.940799e-01 1.050000e+00 0.000000e+00
1.883720e-01 9.435956e-01 0.000000e+00
1.914147e-01 9.938895e-01 0.000000e+00
2.147513e-01 9.434949e-01 0.000000e+00
2.186740e-01 9.940440e-01 0.000000e+00
1.914147e-01 9.938895e-01 0.000000e+00
1.940799e-01 1.050000e+00 0.000000e+00
2.186740e-01 9.940440e-01 0.000000e+00
2.222278e-01 1.050000e+00 0.000000e+00
2.147513e-01 9.434949e-01 0.000000e+00
2.186740e-01 9.940440e-01 0.000000e+00
2.408692e-01 9.431026e-01 0.000000e+00
2.457676e-01 9.939537e-01 0.000000e+00
2.186740e-01 9.940440e-01 0.000000e+00
2.222278e-01 1.050000e+00 0.000000e+00
2.457676e-01 9.939537e-01 0.000000e+00
2.504928e-01 1.050000e+00 0.000000e+00
2.408692e-01 9.431026e-01 0.000000e+00
2.457676e-01 9.939537e-01 0.000000e+00
2.667061e-01 9.422609e-01 0.000000e+00
2.726578e-01 9.934288e-01 0.000000e+00
2.457676e-01 9.939537e-01 0.000000e+00
2.504928e-01 1.050000e+00 0.000000e+00
2.726578e-01 9.934288e-01 0.000000e+00
2.786681e-01 1.050000e+00 0.000000e+00
2.667061e-01 9.422609e-01 0.000000e+00
2.726578e-01 9.934288e-01 0.000000e+00
2.922844e-01 9.406821e-01 0.000000e+00
2.993788e-01 9.919768e-01 0.000000e+00
2.726578e-01 9.934288e-01 0.000000e+00
2.786681e-01 1.050000e+00 0.000000e+00
2.993788e-01 9.919768e-01 0.000000e+00
3.066302e-01 1.048364e+00 0.000000e+00
2.922844e-01 9.406821e-01 0.000000e+00
2.993788e-01 9.919768e-01 0.000000e+00
3.175680e-01 9.382606e-01 0.000000e+00
3.258977e-01 9.895154e-01 0.000000e+00
2.993788e-01 9.919768e-01 0.000000e+00
3.066302e-01 1.048364e+00 0.000000e+00
3.258977e-01 9.895154e-01 0.000000e+00
3.346857e-01 1.045320e+00 0.000000e+00
3.175680e-01 9.382606e-01 0.000000e+00
3.258977e-01 9.895154e-01 0.000000e+00
3.426165e-01 9.348926e-01 0.000000e+00
3.523149e-01 9.859604e-01 0.000000e+00
3.258977e-01 9.895154e-01 0.000000e+00
3.346857e-01 1.045320e+00 0.000000e+00
3.523149e-01 9.859604e-01 0.000000e+00
3.627280e-01 1.041148e+00 0.000000e+00
3.426165e-01 9.348926e-01 0.000000e+00
3.523149e-01 9.859604e-01 0.000000e+00
3.674498e-01 9.305771e-01 0.000000e+00
3.786241e-01 9.813480e-01 0.000000e+00
3.523149e-01 9.859604e-01 0.000000e+00
3.627280e-01 1.041148e+00 0.000000e+00
3.786241e-01 9.813480e-01 0.000000e+00
3.906875e-01 1.035914e+00 0.000000e+00
3.674498e-01 9.305771e-01 0.000000e+00
3.786241e-01 9.813480e-01 0.000000e+00
3.920760e-01 9.253332e-01 0.000000e+00
4.047857e-01 9.757201e-01 0.000000e+00
3.786241e-01 9.813480e-01 0.000000e+00
3.906875e-01 1.035914e+00 0.000000e+00
4.047857e-01 9.757201e-01 0.000000e+00
4.185062e-01 1.029658e+00 0.000000e+00
3.920760e-01 9.253332e-01 0.000000e+00
4.047857e-01 9.757201e-01 0.000000e+00
4.164920e-01 9.191878e-01 0.000000e+00
4.307594e-01 9.691164e-01 0.000000e+00
4.047857e-01 9.757201e-01 0.000000e+00
4.185062e-01 1.029658e+00 0.000000e+00
4.307594e-01 9.691164e-01 0.000000e+00
4.461323e-01 1.022411e+00 0.000000e+00
4.164920e-01 9.191878e-01 0.000000e+00
4.307594e-01 9.691164e-01 0.000000e+00
4.406875e-01 9.121684e-01 0.000000e+00
4.565098e-01 9.615740e-01 0.000000e+00
4.307594e-01 9.691164e-01 0.000000e+00
4.461323e-01 1.022411e+00 0.000000e+00
4.565098e-01 9.615740e-01 0.000000e+00
4.735207e-01 1.014203e+00 0.000000e+00
4.406875e-01 9.121684e-01 0.000000e+00
4.565098e-01 9.615740e-01 0.000000e+00
4.646480e-01 9.043021e-01 0.000000e+00
4.820069e-01 9.531277e-01 0.000000e+00
4.565098e-01 9.615740e-01 0.000000e+00
4.735207e-01 1.014203e+00 0.000000e+00
4.820069e-01 9.531277e-01 0.000000e+00
5.006330e-01 1.005067e+00 0.000000e+00
4.646480e-01 9.043021e-01 0.000000e+00
4.820069e-01 9.531277e-01 0.000000e+00
4.883569e-01 8.956145e-01 0.000000e+00
5.072244e-01 9.438099e-01 0.000000e+00
4.820069e-01 9.531277e-01 0.000000e+00
5.006330e-01 1.005067e+00 0.000000e+00
5.072244e-01 9.438099e-01 0.000000e+00
5.274368e-01 9.950306e-01 0.000000e+00
4.883569e-01 8.956145e-01 0.000000e+00
5.072244e-01 9.438099e-01 0.000000e+00
5.117964e-01 8.861304e-01 0.000000e+00
5.321387e-01 9.336513e-01 0.000000e+00
5.072244e-01 9.438099e-01 0.000000e+00
5.274368e-01 9.950306e-01 0.000000e+00
5.321387e-01 9.336513e-01 0.000000e+00
5.539036e-01 9.841250e-01 0.000000e+00
5.117964e-01 8.861304e-01 0.000000e+00
5.321387e-01 9.336513e-01 0.000000e+00
5.349484e-01 8.758737e-01 0.000000e+00
5.567284e-01 9.226805e-01 0.000000e+00
5.321387e-01 9.336513e-01 0.000000e+00
5.539036e-01 9.841250e-01 0.000000e+00
5.567284e-01 9.226805e-01 0.000000e+00
5.800091e-01 9.723786e-01 0.000000e+00
5.349484e-01 8.758737e-01 0.000000e+00
5.567284e-01 9.226805e-01 0.000000e+00
5.577949e-01 8.648674e-01 0.000000e+00
5.809735e-01 9.109244e-01 0.000000e+00
5.567284e-01 9.226805e-01 0.000000e+00
5.800091e-01 9.723786e-01 0.000000e+00
5.809735e-01 9.109244e-01 0.000000e+00
6.057315e-01 9.598188e-01 0.000000e+00
5.577949e-01 8.648674e-01 0.000000e+00
5.809735e-01 9.109244e-01 0.000000e+00
5.803180e-01 8.531339e-01 0.000000e+00
6.048556e-01 8.984086e-01 0.000000e+00
5.809735e-01 9.109244e-01 0.000000e+00
6.057315e-01 9.598188e-01 0.000000e+00
6.048556e-01 8.984086e-01 0.000000e+00
6.310513e-01 9.464718e-01 0.000000e+00
5.803180e-01 8.531339e-01 0.000000e+00
6.048556e-01 8.984086e-01 0.000000e+00
6.025003e-01 8.406947e-01 0.000000e+00
6.283570e-01 8.851576e-01 0.000000e+00
6.048556e-01 8.984086e-01 0.000000e+00
6.310513e-01 9.464718e-01 0.000000e+00
6.283570e-01 8.851576e-01 0.000000e+00
6.559504e-01 9.323627e-01 0.000000e+00
6.025003e-01 8.406947e-01 0.000000e+00
6.283570e-01 8.851576e-01 0.000000e+00
6.243249e-01 8.275707e-01 0.000000e+00
6.514611e-01 8.711944e-01 0.000000e+00
6.283570e-01 8.851576e-01 0.000000e+00
6.559504e-01 9.323627e-01 0.000000e+00
6.514611e-01 8.711944e-01 0.000000e+00
6.804123e-01 9.175156e-01 0.000000e+00
6.243249e-01 8.275707e-01 0.000000e+00
6.514611e-01 8.711944e-01 0.000000e+00
6.457754e-01 8.137825e-01 0.000000e+00
6.741521e-01 8.565415e-01 0.000000e+00
6.514611e-01 8.711944e-01 0.000000e+00
6.804123e-01 9.175156e-01 0.000000e+00
6.741521e-01 8.565415e-01 0.000000e+00
7.044215e-01 9.019535e-01 0.000000e+00
6.457754e-01 8.137825e-01 0.000000e+00
6.741521e-01 8.565415e-01 0.000000e+00
6.668360e-01 7.993497e-01 0.000000e+00
6.964148e-01 8.412200e-01 0.000000e+00
6.741521e-01 8.565415e-01 0.000000e+00
7.044215e-01 9.019535e-01 0.000000e+00
6.964148e-01 8.412200e-01 0.000000e+00
7.279633e-01 8.856985e-01 0.000000e+00
6.668360e-01 7.993497e-01 0.000000e+00
6.964148e-01 8.412200e-01 0.000000e+00
6.874913e-01 7.842919e-01 0.000000e+00
7.182347e-01 8.252509e-01 0.000000e+00
6.964148e-01 8.412200e-01 0.000000e+00
7.279633e-01 8.856985e-01 0.000000e+00
7.182347e-01 8.252509e-01 0.000000e+00
7.510237e-01 8.687722e-01 0.000000e+00
6.874913e-01 7.842919e-01 0.000000e+00
7.182347e-01 8.252509e-01 0.000000e+00
7.077267e-01 7.686279e-01 0.000000e+00
7.395977e-01 8.086540e-01 0.000000e+00
7.182347e-01 8.252509e-01 0.000000e+00
7.510237e-01 8.687722e-01 0.000000e+00
7.395977e-01 8.086540e-01 0.000000e+00
7.735891e-01 8.511953e-01 0.000000e+00
7.077267e-01 7.686279e-01 0.000000e+00
7.395977e-01 8.086540e-01 0.000000e+00
7.275278e-01 7.523765e-01 0.000000e+00
7.604903e-01 7.914491e-01 0.000000e+00
7.395977e-01 8.086540e-01 0.000000e+00
7.735891e-01 8.511953e-01 0.000000e+00
7.604903e-01 7.914491e-01 0.000000e+00
7.956467e-01 8.329880e-01 0.000000e+00
7.275278e-01 7.523765e-01 0.000000e+00
7.604903e-01 7.914491e-01 0.000000e+00
7.468809e-01 7.355558e-01 0.000000e+00
7.808995e-01 7.736551e-01 0.000000e+00
7.604903e-01 7.914491e-01 0.000000e+00
7.956467e-01 8.329880e-01 0.000000e+00
7.808995e-01 7.736551e-01 0.000000e+00
8.171839e-01 8.141701e-01 0.000000e+00
7.468809e-01 7.355558e-01 0.000000e+00
[...]
<PointData>
<DataArray type="Float32" Name="V1" format="ascii">
1.305046e+01
5.403228e+00
1.304243e+01
5.395192e+00
5.720135e+00
1.222826e+00
5.734519e+00
1.237210e+00
1.301367e+01
5.425676e+00
1.299064e+01
5.402648e+00
5.726390e+00
1.237904e+00
5.762571e+00
1.274086e+00
1.292995e+01
5.464625e+00
1.289060e+01
5.425274e+00
5.747500e+00
1.278389e+00
5.811176e+00
1.342065e+00
1.279336e+01
5.523945e+00
1.273494e+01
5.465527e+00
5.785865e+00
1.350782e+00
5.884161e+00
1.449078e+00
1.259502e+01
5.608185e+00
1.251449e+01
5.527657e+00
5.843748e+00
1.464934e+00
5.987832e+00
1.609017e+00
1.232480e+01
5.723021e+00
1.221972e+01
5.617938e+00
5.924044e+00
1.637324e+00
6.130926e+00
1.844206e+00
1.197428e+01
5.874475e+00
1.184453e+01
5.744727e+00
6.029358e+00
1.895120e+00
6.324664e+00
2.190425e+00
1.154143e+01
6.068715e+00
1.139116e+01
5.918447e+00
6.158380e+00
2.284813e+00
6.579766e+00
2.706199e+00
1.104360e+01
6.304878e+00
1.088053e+01
6.141806e+00
6.294029e+00
2.886626e+00
6.901335e+00
3.493932e+00
1.048539e+01
6.605852e+00
1.034719e+01
6.467647e+00
6.281869e+00
3.957458e+00
7.121694e+00
4.797283e+00
9.964318e+00
6.957070e+00
9.827620e+00
6.820372e+00
6.489335e+00
5.363534e+00
6.982056e+00
5.856254e+00
9.554853e+00
7.116033e+00
9.464283e+00
7.025462e+00
6.875198e+00
5.869470e+00
7.134839e+00
6.129112e+00
9.259387e+00
7.237378e+00
9.200266e+00
7.178256e+00
7.068072e+00
6.157888e+00
7.258343e+00
6.348159e+00
9.066638e+00
7.319456e+00
9.038075e+00
7.290893e+00
7.198497e+00
6.381552e+00
7.350571e+00
6.533626e+00
8.951395e+00
7.385608e+00
8.949301e+00
7.383515e+00
7.302569e+00
6.563081e+00
7.428899e+00
6.689411e+00
8.892764e+00
7.446676e+00
8.910547e+00
7.464459e+00
7.393186e+00
6.712198e+00
7.499948e+00
6.818960e+00
8.873908e+00
7.505912e+00
8.905653e+00
7.537657e+00
7.475249e+00
6.834938e+00
7.566398e+00
6.926088e+00
8.882682e+00
7.563806e+00
8.923787e+00
7.604911e+00
7.550697e+00
6.936211e+00
7.629143e+00
7.014658e+00
8.910508e+00
7.620057e+00
8.957563e+00
7.667112e+00
7.620413e+00
7.020153e+00
7.688436e+00
7.088177e+00
8.951286e+00
7.674261e+00
9.001810e+00
7.724785e+00
7.684926e+00
7.090185e+00
7.744348e+00
7.149607e+00
9.000629e+00
7.726110e+00
9.052827e+00
7.778308e+00
7.744652e+00
7.149072e+00
7.796936e+00
7.201356e+00
9.055343e+00
7.775418e+00
9.107928e+00
7.828003e+00
7.799968e+00
7.199014e+00
7.846290e+00
7.245336e+00
9.113092e+00
7.822105e+00
9.165151e+00
7.874164e+00
7.851225e+00
7.241747e+00
7.892533e+00
7.283055e+00
9.172172e+00
7.866168e+00
9.223065e+00
7.917060e+00
7.898752e+00
7.278637e+00
7.935811e+00
7.315696e+00
9.231343e+00
7.907654e+00
9.280634e+00
7.956945e+00
7.942854e+00
7.310758e+00
7.976286e+00
7.344190e+00
9.289715e+00
7.946647e+00
9.337118e+00
7.994051e+00
7.983811e+00
7.338958e+00
8.014121e+00
7.369267e+00
9.346659e+00
7.983251e+00
9.391999e+00
8.028591e+00
8.021879e+00
7.363908e+00
8.049479e+00
7.391509e+00
9.401742e+00
8.017580e+00
9.444925e+00
8.060763e+00
8.057288e+00
7.386142e+00
8.082521e+00
7.411376e+00
9.454681e+00
8.049754e+00
9.495672e+00
8.090745e+00
8.090248e+00
7.406085e+00
8.113397e+00
7.429234e+00
9.505300e+00
8.079895e+00
9.544106e+00
8.118701e+00
8.120950e+00
7.424080e+00
8.142251e+00
7.445381e+00
9.553506e+00
8.108120e+00
9.590164e+00
8.144778e+00
8.149565e+00
7.440402e+00
8.169217e+00
7.460054e+00
9.599266e+00
8.134544e+00
9.633834e+00
8.169112e+00
8.176250e+00
7.455278e+00
8.194419e+00
7.473447e+00
9.642590e+00
8.159278e+00
9.675138e+00
8.191826e+00
8.201145e+00
7.468889e+00
8.217975e+00
7.485718e+00
9.683517e+00
8.182424e+00
9.714125e+00
8.213032e+00
8.224378e+00
7.481387e+00
8.239991e+00
7.497000e+00
9.722110e+00
8.204080e+00
9.750863e+00
8.232832e+00
8.246065e+00
7.492897e+00
8.260567e+00
7.507399e+00
9.758445e+00
8.224338e+00
9.785428e+00
8.251320e+00
8.266312e+00
7.503523e+00
8.279796e+00
7.517007e+00
9.792607e+00
8.243283e+00
9.817905e+00
8.268581e+00
8.285216e+00
7.513354e+00
8.297761e+00
7.525899e+00
9.824686e+00
8.260995e+00
9.848382e+00
8.284692e+00
8.302865e+00
7.522464e+00
8.314542e+00
7.534141e+00
9.854772e+00
8.277548e+00
9.876949e+00
8.299725e+00
8.319338e+00
7.530916e+00
8.330209e+00
7.541787e+00
9.882959e+00
8.293010e+00
9.903693e+00
8.313745e+00
8.334708e+00
7.538765e+00
8.344830e+00
7.548886e+00
9.909335e+00
8.307445e+00
9.928701e+00
8.326812e+00
8.349044e+00
7.546057e+00
8.358465e+00
7.555478e+00
9.933987e+00
8.320912e+00
9.952055e+00
8.338980e+00
8.362405e+00
7.552834e+00
8.371169e+00
7.561599e+00
9.956999e+00
8.333464e+00
9.973834e+00
8.350300e+00
8.374848e+00
7.559132e+00
8.382996e+00
7.567280e+00
9.978449e+00
8.345153e+00
9.994113e+00
8.360817e+00
8.386425e+00
7.564982e+00
8.393992e+00
7.572549e+00
9.998413e+00
8.356023e+00
1.001296e+01
8.370573e+00
8.397182e+00
7.570413e+00
8.404201e+00
7.577431e+00
1.001696e+01
8.366118e+00
1.003045e+01
8.379607e+00
8.407163e+00
7.575448e+00
8.413662e+00
7.581948e+00
1.003416e+01
8.375476e+00
1.004664e+01
8.387954e+00
8.416406e+00
7.580112e+00
8.422412e+00
7.586118e+00
1.005007e+01
8.384134e+00
1.006158e+01
8.395646e+00
8.424948e+00
7.584422e+00
8.430485e+00
7.589959e+00
1.006474e+01
8.392124e+00
1.007533e+01
8.402712e+00
8.432821e+00
7.588397e+00
8.437911e+00
7.593487e+00
1.007824e+01
8.399476e+00
1.008794e+01
8.409178e+00
8.440056e+00
7.592054e+00
8.444718e+00
7.596716e+00
1.009060e+01
8.406218e+00
1.009945e+01
8.415069e+00
8.446679e+00
7.595405e+00
8.450931e+00
7.599658e+00
1.010187e+01
8.412374e+00
1.010990e+01
8.420406e+00
8.452715e+00
7.598465e+00
8.456573e+00
7.602323e+00
1.011209e+01
8.417967e+00
1.011934e+01
8.425210e+00
8.458187e+00
7.601245e+00
8.461665e+00
7.604722e+00
1.012131e+01
8.423018e+00
1.012778e+01
8.429496e+00
8.463114e+00
7.603754e+00
8.466224e+00
7.606864e+00
1.012954e+01
8.427544e+00
1.013527e+01
8.433281e+00
8.467515e+00
7.606003e+00
8.470269e+00
7.608757e+00
1.013682e+01
8.431563e+00
1.014183e+01
8.436578e+00
8.471404e+00
7.607998e+00
8.473812e+00
7.610406e+00
1.014317e+01
8.435087e+00
1.014749e+01
8.439399e+00
8.474797e+00
7.609748e+00
8.476867e+00
7.611818e+00
1.014863e+01
8.438130e+00
1.015225e+01
8.441753e+00
8.477704e+00
7.611259e+00
8.479444e+00
7.612998e+00
1.015319e+01
8.440703e+00
1.015614e+01
8.443650e+00
8.480137e+00
7.612535e+00
8.481552e+00
7.613950e+00
1.015689e+01
8.442814e+00
1.015917e+01
8.445096e+00
8.482104e+00
7.613581e+00
8.483199e+00
7.614676e+00
1.015973e+01
8.444472e+00
1.016136e+01
8.446096e+00
8.483612e+00
7.614401e+00
8.484391e+00
7.615181e+00
1.016173e+01
8.445681e+00
1.016270e+01
8.446653e+00
8.484665e+00
7.614998e+00
8.485132e+00
7.615465e+00
1.016289e+01
8.446446e+00
1.016321e+01
8.446770e+00
8.485269e+00
7.615373e+00
8.485424e+00
7.615529e+00
</DataArray>
<DataArray type="Float32" Name="V2" format="ascii">
9.429551e-01
9.927141e-01
9.433613e-01
9.931154e-01
9.927141e-01
1.050000e+00
9.931154e-01
1.050360e+00
9.433613e-01
9.931154e-01
9.445715e-01
9.943177e-01
9.931154e-01
1.050360e+00
9.943177e-01
1.051442e+00
9.445715e-01
9.943177e-01
9.465775e-01
9.963183e-01
9.943177e-01
1.051442e+00
9.963183e-01
1.053246e+00
9.465775e-01
9.963183e-01
9.493607e-01
9.991106e-01
9.963183e-01
1.053246e+00
9.991106e-01
1.055775e+00
9.493607e-01
9.991106e-01
9.528902e-01
1.002681e+00
9.991106e-01
1.055775e+00
1.002681e+00
1.059032e+00
9.528902e-01
1.002681e+00
9.571181e-01
1.007004e+00
1.002681e+00
1.059032e+00
1.007004e+00
1.063023e+00
9.571181e-01
1.007004e+00
9.619707e-01
1.012029e+00
1.007004e+00
1.063023e+00
1.012029e+00
1.067750e+00
9.619707e-01
1.012029e+00
9.673399e-01
1.017664e+00
1.012029e+00
1.067750e+00
1.017664e+00
1.073215e+00
9.673399e-01
1.017664e+00
9.730555e-01
1.023722e+00
1.017664e+00
1.073215e+00
1.023722e+00
1.079414e+00
9.730555e-01
1.023722e+00
9.789354e-01
1.029990e+00
1.023722e+00
1.079414e+00
1.029990e+00
1.086295e+00
9.789354e-01
1.029990e+00
9.846858e-01
1.035985e+00
1.029990e+00
1.086295e+00
1.035985e+00
1.092229e+00
9.846858e-01
1.035985e+00
9.901812e-01
1.041614e+00
1.035985e+00
1.092229e+00
1.041614e+00
1.097530e+00
9.901812e-01
1.041614e+00
9.953290e-01
1.046826e+00
1.041614e+00
1.097530e+00
1.046826e+00
1.102456e+00
9.953290e-01
1.046826e+00
1.000132e+00
1.051663e+00
1.046826e+00
1.102456e+00
1.051663e+00
1.107064e+00
1.000132e+00
1.051663e+00
1.004610e+00
1.056157e+00
1.051663e+00
1.107064e+00
1.056157e+00
1.111379e+00
1.004610e+00
1.056157e+00
1.008790e+00
1.060340e+00
1.056157e+00
1.111379e+00
1.060340e+00
1.115420e+00
1.008790e+00
1.060340e+00
1.012696e+00
1.064237e+00
1.060340e+00
1.115420e+00
1.064237e+00
1.119205e+00
1.012696e+00
1.064237e+00
1.016351e+00
1.067873e+00
1.064237e+00
1.119205e+00
1.067873e+00
1.122750e+00
1.016351e+00
1.067873e+00
1.019776e+00
1.071271e+00
1.067873e+00
1.122750e+00
1.071271e+00
1.126072e+00
1.019776e+00
1.071271e+00
1.022987e+00
1.074450e+00
1.071271e+00
1.126072e+00
1.074450e+00
1.129186e+00
1.022987e+00
1.074450e+00
1.026003e+00
1.077429e+00
1.074450e+00
1.129186e+00
1.077429e+00
1.132109e+00
1.026003e+00
1.077429e+00
1.028837e+00
1.080224e+00
1.077429e+00
1.132109e+00
1.080224e+00
1.134854e+00
1.028837e+00
1.080224e+00
1.031504e+00
1.082849e+00
1.080224e+00
1.134854e+00
1.082849e+00
1.137435e+00
1.031504e+00
1.082849e+00
1.034015e+00
1.085318e+00
1.082849e+00
1.137435e+00
1.085318e+00
1.139864e+00
1.034015e+00
1.085318e+00
1.036382e+00
1.087642e+00
1.085318e+00
1.139864e+00
1.087642e+00
1.142152e+00
1.036382e+00
1.087642e+00
1.038614e+00
1.089833e+00
1.087642e+00
1.142152e+00
1.089833e+00
1.144309e+00
1.038614e+00
1.089833e+00
1.040722e+00
1.091900e+00
1.089833e+00
1.144309e+00
1.091900e+00
1.146345e+00
1.040722e+00
1.091900e+00
1.042713e+00
1.093851e+00
1.091900e+00
1.146345e+00
1.093851e+00
1.148267e+00
1.042713e+00
1.093851e+00
1.044595e+00
1.095695e+00
1.093851e+00
1.148267e+00
1.095695e+00
1.150083e+00
1.044595e+00
1.095695e+00
1.046376e+00
1.097438e+00
1.095695e+00
1.150083e+00
1.097438e+00
1.151801e+00
1.046376e+00
1.097438e+00
1.048060e+00
1.099087e+00
1.097438e+00
1.151801e+00
1.099087e+00
1.153425e+00
1.048060e+00
1.099087e+00
1.049654e+00
1.100647e+00
1.099087e+00
1.153425e+00
1.100647e+00
1.154963e+00
1.049654e+00
1.100647e+00
1.051163e+00
1.102124e+00
1.100647e+00
1.154963e+00
1.102124e+00
1.156418e+00
1.051163e+00
1.102124e+00
1.052592e+00
1.103522e+00
1.102124e+00
1.156418e+00
1.103522e+00
1.157797e+00
1.052592e+00
1.103522e+00
1.053944e+00
1.104846e+00
1.103522e+00
1.157797e+00
1.104846e+00
1.159101e+00
1.053944e+00
1.104846e+00
1.055225e+00
1.106100e+00
1.104846e+00
1.159101e+00
1.106100e+00
1.160337e+00
1.055225e+00
1.106100e+00
1.056437e+00
1.107286e+00
1.106100e+00
1.160337e+00
1.107286e+00
1.161506e+00
1.056437e+00
1.107286e+00
1.057583e+00
1.108408e+00
1.107286e+00
1.161506e+00
1.108408e+00
1.162612e+00
1.057583e+00
1.108408e+00
1.058667e+00
1.109469e+00
1.108408e+00
1.162612e+00
1.109469e+00
1.163658e+00
1.058667e+00
1.109469e+00
1.059691e+00
1.110472e+00
1.109469e+00
1.163658e+00
1.110472e+00
1.164647e+00
1.059691e+00
1.110472e+00
1.060658e+00
1.111418e+00
1.110472e+00
1.164647e+00
1.111418e+00
1.165580e+00
1.060658e+00
1.111418e+00
1.061569e+00
1.112311e+00
1.111418e+00
1.165580e+00
1.112311e+00
1.166461e+00
1.061569e+00
1.112311e+00
1.062428e+00
1.113152e+00
1.112311e+00
1.166461e+00
1.113152e+00
1.167290e+00
1.062428e+00
1.113152e+00
1.063234e+00
1.113942e+00
1.113152e+00
1.167290e+00
1.113942e+00
1.168069e+00
1.063234e+00
1.113942e+00
1.063992e+00
1.114684e+00
1.113942e+00
1.168069e+00
1.114684e+00
1.168801e+00
1.063992e+00
1.114684e+00
1.064700e+00
1.115379e+00
1.114684e+00
1.168801e+00
1.115379e+00
1.169486e+00
1.064700e+00
1.115379e+00
1.065363e+00
1.116028e+00
1.115379e+00
1.169486e+00
1.116028e+00
1.170127e+00
1.065363e+00
1.116028e+00
1.065979e+00
1.116632e+00
1.116028e+00
1.170127e+00
1.116632e+00
1.170723e+00
1.065979e+00
1.116632e+00
1.066551e+00
1.117193e+00
1.116632e+00
1.170723e+00
1.117193e+00
1.171276e+00
1.066551e+00
1.117193e+00
1.067080e+00
1.117711e+00
1.117193e+00
1.171276e+00
1.117711e+00
1.171788e+00
1.067080e+00
1.117711e+00
1.067566e+00
1.118188e+00
1.117711e+00
1.171788e+00
1.118188e+00
1.172258e+00
1.067566e+00
1.118188e+00
1.068010e+00
1.118624e+00
1.118188e+00
1.172258e+00
1.118624e+00
1.172688e+00
1.068010e+00
1.118624e+00
1.068414e+00
1.119020e+00
1.118624e+00
1.172688e+00
1.119020e+00
1.173079e+00
1.068414e+00
1.119020e+00
1.068777e+00
1.119376e+00
1.119020e+00
1.173079e+00
1.119376e+00
1.173430e+00
1.068777e+00
1.119376e+00
1.069100e+00
1.119693e+00
1.119376e+00
1.173430e+00
1.119693e+00
1.173744e+00
1.069100e+00
1.119693e+00
1.069385e+00
1.119972e+00
1.119693e+00
1.173744e+00
1.119972e+00
1.174019e+00
1.069385e+00
1.119972e+00
1.069630e+00
1.120213e+00
1.119972e+00
1.174019e+00
1.120213e+00
1.174257e+00
1.069630e+00
1.120213e+00
1.069837e+00
1.120416e+00
1.120213e+00
1.174257e+00
1.120416e+00
1.174457e+00
1.069837e+00
1.120416e+00
1.070006e+00
1.120582e+00
1.120416e+00
1.174457e+00
1.120582e+00
1.174621e+00
1.070006e+00
1.120582e+00
1.070137e+00
1.120711e+00
1.120582e+00
1.174621e+00
1.120711e+00
1.174748e+00
1.070137e+00
1.120711e+00
1.070231e+00
1.120803e+00
1.120711e+00
1.174748e+00
1.120803e+00
1.174839e+00
1.070231e+00
1.120803e+00
1.070287e+00
1.120858e+00
1.120803e+00
1.174839e+00
1.120858e+00
1.174893e+00
1.070287e+00
1.120858e+00
1.070306e+00
1.120876e+00
1.120858e+00
1.174893e+00
1.120876e+00
1.174911e+00
</DataArray>
<DataArray type="Float32" Name="V3" format="ascii">
0.000000e+00
0.000000e+00
3.572403e-03
2.570776e-03
0.000000e+00
0.000000e+00
2.570776e-03
1.357191e-03
3.572403e-03
2.570776e-03
7.086576e-03
5.106315e-03
2.570776e-03
1.357191e-03
5.106315e-03
2.701992e-03
7.086576e-03
5.106315e-03
1.048316e-02
7.570959e-03
5.106315e-03
2.701992e-03
7.570959e-03
4.022496e-03
1.048316e-02
7.570959e-03
1.370126e-02
9.927491e-03
7.570959e-03
4.022496e-03
9.927491e-03
5.306803e-03
1.370126e-02
9.927491e-03
1.667817e-02
1.213595e-02
9.927491e-03
5.306803e-03
1.213595e-02
6.542413e-03
1.667817e-02
1.213595e-02
1.935038e-02
1.415131e-02
1.213595e-02
6.542413e-03
1.415131e-02
7.714224e-03
1.935038e-02
1.415131e-02
2.165654e-02
1.591962e-02
1.415131e-02
7.714224e-03
1.591962e-02
8.800812e-03
2.165654e-02
1.591962e-02
2.354341e-02
1.737222e-02
1.591962e-02
8.800812e-03
1.737222e-02
9.768152e-03
2.354341e-02
1.737222e-02
2.497006e-02
1.843017e-02
1.737222e-02
9.768152e-03
1.843017e-02
1.056542e-02
2.497006e-02
1.843017e-02
2.594899e-02
1.909054e-02
1.843017e-02
1.056542e-02
1.909054e-02
1.095567e-02
2.594899e-02
1.909054e-02
2.658524e-02
1.952181e-02
1.909054e-02
1.095567e-02
1.952181e-02
1.123025e-02
2.658524e-02
1.952181e-02
2.690218e-02
1.975418e-02
1.952181e-02
1.123025e-02
1.975418e-02
1.170314e-02
2.690218e-02
1.975418e-02
2.702473e-02
1.995369e-02
1.975418e-02
1.170314e-02
1.995369e-02
1.224822e-02
2.702473e-02
1.995369e-02
2.701375e-02
2.014949e-02
1.995369e-02
1.224822e-02
2.014949e-02
1.282280e-02
2.701375e-02
2.014949e-02
2.691108e-02
2.033383e-02
2.014949e-02
1.282280e-02
2.033383e-02
1.340026e-02
2.691108e-02
2.033383e-02
2.674296e-02
2.049597e-02
2.033383e-02
1.340026e-02
2.049597e-02
1.396036e-02
2.674296e-02
2.049597e-02
2.652611e-02
2.062835e-02
2.049597e-02
1.396036e-02
2.062835e-02
1.448804e-02
2.652611e-02
2.062835e-02
2.627143e-02
2.072659e-02
2.062835e-02
1.448804e-02
2.072659e-02
1.497274e-02
2.627143e-02
2.072659e-02
2.598617e-02
2.078850e-02
2.072659e-02
1.497274e-02
2.078850e-02
1.540755e-02
2.598617e-02
2.078850e-02
2.567527e-02
2.081320e-02
2.078850e-02
1.540755e-02
2.081320e-02
1.578841e-02
2.567527e-02
2.081320e-02
2.534210e-02
2.080067e-02
2.081320e-02
1.578841e-02
2.080067e-02
1.611334e-02
2.534210e-02
2.080067e-02
2.498899e-02
2.075137e-02
2.080067e-02
1.611334e-02
2.075137e-02
1.638189e-02
2.498899e-02
2.075137e-02
2.461756e-02
2.066610e-02
2.075137e-02
1.638189e-02
2.066610e-02
1.659467e-02
2.461756e-02
2.066610e-02
2.422894e-02
2.054586e-02
2.066610e-02
1.659467e-02
2.054586e-02
1.675301e-02
2.422894e-02
2.054586e-02
2.382394e-02
2.039176e-02
2.054586e-02
1.675301e-02
2.039176e-02
1.685870e-02
2.382394e-02
2.039176e-02
2.340313e-02
2.020503e-02
2.039176e-02
1.685870e-02
2.020503e-02
1.691383e-02
2.340313e-02
2.020503e-02
2.296697e-02
1.998690e-02
2.020503e-02
1.691383e-02
1.998690e-02
1.692064e-02
2.296697e-02
1.998690e-02
2.251579e-02
1.973864e-02
1.998690e-02
1.692064e-02
1.973864e-02
1.688148e-02
2.251579e-02
1.973864e-02
2.204992e-02
1.946151e-02
1.973864e-02
1.688148e-02
1.946151e-02
1.679868e-02
2.204992e-02
1.946151e-02
2.156963e-02
1.915676e-02
1.946151e-02
1.679868e-02
1.915676e-02
1.667454e-02
2.156963e-02
1.915676e-02
2.107518e-02
1.882560e-02
1.915676e-02
1.667454e-02
1.882560e-02
1.651130e-02
2.107518e-02
1.882560e-02
2.056687e-02
1.846922e-02
1.882560e-02
1.651130e-02
1.846922e-02
1.631113e-02
2.056687e-02
1.846922e-02
2.004496e-02
1.808879e-02
1.846922e-02
1.631113e-02
1.808879e-02
1.607610e-02
2.004496e-02
1.808879e-02
1.950976e-02
1.768541e-02
1.808879e-02
1.607610e-02
1.768541e-02
1.580819e-02
1.950976e-02
1.768541e-02
1.896158e-02
1.726017e-02
1.768541e-02
1.580819e-02
1.726017e-02
1.550929e-02
1.896158e-02
1.726017e-02
1.840076e-02
1.681412e-02
1.726017e-02
1.550929e-02
1.681412e-02
1.518119e-02
1.840076e-02
1.681412e-02
1.782764e-02
1.634827e-02
1.681412e-02
1.518119e-02
1.634827e-02
1.482558e-02
1.782764e-02
1.634827e-02
1.724259e-02
1.586360e-02
1.634827e-02
1.482558e-02
1.586360e-02
1.444408e-02
1.724259e-02
1.586360e-02
1.664599e-02
1.536105e-02
1.586360e-02
1.444408e-02
1.536105e-02
1.403821e-02
1.664599e-02
1.536105e-02
1.603822e-02
1.484155e-02
1.536105e-02
1.403821e-02
1.484155e-02
1.360944e-02
1.603822e-02
1.484155e-02
1.541970e-02
1.430597e-02
1.484155e-02
1.360944e-02
1.430597e-02
1.315913e-02
1.541970e-02
1.430597e-02
1.479084e-02
1.375517e-02
1.430597e-02
1.315913e-02
1.375517e-02
1.268861e-02
1.479084e-02
1.375517e-02
1.415207e-02
1.318999e-02
1.375517e-02
1.268861e-02
1.318999e-02
1.219914e-02
1.415207e-02
1.318999e-02
1.350381e-02
1.261125e-02
1.318999e-02
1.219914e-02
1.261125e-02
1.169190e-02
1.350381e-02
1.261125e-02
1.284651e-02
1.201973e-02
1.261125e-02
1.169190e-02
1.201973e-02
1.116805e-02
1.284651e-02
1.201973e-02
1.218063e-02
1.141620e-02
1.201973e-02
1.116805e-02
1.141620e-02
1.062869e-02
1.218063e-02
1.141620e-02
1.150660e-02
1.080141e-02
1.141620e-02
1.062869e-02
1.080141e-02
1.007488e-02
1.150660e-02
1.080141e-02
1.082490e-02
1.017611e-02
1.080141e-02
1.007488e-02
1.017611e-02
9.507641e-03
1.082490e-02
1.017611e-02
1.013599e-02
9.541017e-03
1.017611e-02
9.507641e-03
9.541017e-03
8.927956e-03
1.013599e-02
9.541017e-03
9.440324e-03
8.896833e-03
9.541017e-03
8.927956e-03
8.896833e-03
8.336781e-03
9.440324e-03
8.896833e-03
8.738387e-03
8.244258e-03
8.896833e-03
8.336781e-03
8.244258e-03
7.735041e-03
8.738387e-03
8.244258e-03
8.030648e-03
7.583975e-03
8.244258e-03
7.735041e-03
7.583975e-03
7.123639e-03
8.030648e-03
7.583975e-03
7.317585e-03
6.916660e-03
7.583975e-03
7.123639e-03
6.916660e-03
6.503451e-03
7.317585e-03
6.916660e-03
6.599674e-03
6.242978e-03
6.916660e-03
6.503451e-03
6.242978e-03
5.875337e-03
6.599674e-03
6.242978e-03
5.877396e-03
5.563587e-03
6.242978e-03
5.875337e-03
5.563587e-03
5.240137e-03
5.877396e-03
5.563587e-03
5.151234e-03
4.879138e-03
5.563587e-03
5.240137e-03
4.879138e-03
4.598674e-03
5.151234e-03
4.879138e-03
4.421669e-03
4.190277e-03
4.879138e-03
4.598674e-03
4.190277e-03
3.951761e-03
4.421669e-03
4.190277e-03
3.689186e-03
3.497642e-03
4.190277e-03
3.951761e-03
3.497642e-03
3.300196e-03
3.689186e-03
3.497642e-03
2.954270e-03
2.801870e-03
3.497642e-03
3.300196e-03
2.801870e-03
2.644770e-03
2.954270e-03
2.801870e-03
2.217407e-03
2.103591e-03
2.801870e-03
2.644770e-03
2.103591e-03
1.986264e-03
2.217407e-03
2.103591e-03
1.479083e-03
1.403436e-03
2.103591e-03
1.986264e-03
1.403436e-03
1.325454e-03
1.479083e-03
1.403436e-03
7.397852e-04
7.020303e-04
1.403436e-03
1.325454e-03
7.020303e-04
6.631100e-04
7.397852e-04
7.020303e-04
0.000000e+00
0.000000e+00
7.020303e-04
6.631100e-04
0.000000e+00
0.000000e+00
</DataArray>
<DataArray type="Float32" Name="V4" format="ascii">
8.500000e-01
9.250000e-01
8.500000e-01
9.250000e-01
9.250000e-01
1.000000e+00