<?xml version="1.0"?>
<VTKFile type="UnstructuredGrid" version="0.1" byte_order="LittleEndian" compressor="vtkZLibDataCompressor">
<UnstructuredGrid>
<Piece NumberOfPoints="504" NumberOfCells="126">
<Points>
<DataArray type="Float32" NumberOfComponents="3" format="ascii">
0.000000e+00 9.532061e-01 0.000000e+00
0.000000e+00 1.002975e+00 0.000000e+00
2.706288e-02 9.532294e-01 0.000000e+00
2.736179e-02 1.003005e+00 0.000000e+00
0.000000e+00 1.002975e+00 0.000000e+00
0.000000e+00 1.060000e+00 0.000000e+00
2.736179e-02 1.003005e+00 0.000000e+00
2.762230e-02 1.060000e+00 0.000000e+00
2.706288e-02 9.532294e-01 0.000000e+00
2.736179e-02 1.003005e+00 0.000000e+00
5.410284e-02 9.532916e-01 0.000000e+00
5.472784e-02 1.003095e+00 0.000000e+00
2.736179e-02 1.003005e+00 0.000000e+00
2.762230e-02 1.060000e+00 0.000000e+00
5.472784e-02 1.003095e+00 0.000000e+00
5.526994e-02 1.060000e+00 0.000000e+00
5.410284e-02 9.532916e-01 0.000000e+00
5.472784e-02 1.003095e+00 0.000000e+00
8.109513e-02 9.533872e-01 0.000000e+00
8.210140e-02 1.003241e+00 0.000000e+00
5.472784e-02 1.003095e+00 0.000000e+00
5.526994e-02 1.060000e+00 0.000000e+00
8.210140e-02 1.003241e+00 0.000000e+00
8.296857e-02 1.060000e+00 0.000000e+00
8.109513e-02 9.533872e-01 0.000000e+00
8.210140e-02 1.003241e+00 0.000000e+00
1.080119e-01 9.535021e-01 0.000000e+00
1.094826e-01 1.003436e+00 0.000000e+00
8.210140e-02 1.003241e+00 0.000000e+00
8.296857e-02 1.060000e+00 0.000000e+00
1.094826e-01 1.003436e+00 0.000000e+00
1.107432e-01 1.060000e+00 0.000000e+00
1.080119e-01 9.535021e-01 0.000000e+00
1.094826e-01 1.003436e+00 0.000000e+00
1.348209e-01 9.536110e-01 0.000000e+00
1.368655e-01 1.003665e+00 0.000000e+00
1.094826e-01 1.003436e+00 0.000000e+00
1.107432e-01 1.060000e+00 0.000000e+00
1.368655e-01 1.003665e+00 0.000000e+00
1.386172e-01 1.060000e+00 0.000000e+00
1.348209e-01 9.536110e-01 0.000000e+00
1.368655e-01 1.003665e+00 0.000000e+00
1.614847e-01 9.536711e-01 0.000000e+00
1.642325e-01 1.003897e+00 0.000000e+00
1.368655e-01 1.003665e+00 0.000000e+00
1.386172e-01 1.060000e+00 0.000000e+00
1.642325e-01 1.003897e+00 0.000000e+00
1.666089e-01 1.060000e+00 0.000000e+00
1.614847e-01 9.536711e-01 0.000000e+00
1.642325e-01 1.003897e+00 0.000000e+00
1.879611e-01 9.536124e-01 0.000000e+00
1.915440e-01 1.004074e+00 0.000000e+00
1.642325e-01 1.003897e+00 0.000000e+00
1.666089e-01 1.060000e+00 0.000000e+00
1.915440e-01 1.004074e+00 0.000000e+00
1.947266e-01 1.060000e+00 0.000000e+00
1.879611e-01 9.536124e-01 0.000000e+00
1.915440e-01 1.004074e+00 0.000000e+00
2.142024e-01 9.533226e-01 0.000000e+00
2.187250e-01 1.004080e+00 0.000000e+00
1.915440e-01 1.004074e+00 0.000000e+00
1.947266e-01 1.060000e+00 0.000000e+00
2.187250e-01 1.004080e+00 0.000000e+00
2.229619e-01 1.060000e+00 0.000000e+00
2.142024e-01 9.533226e-01 0.000000e+00
2.187250e-01 1.004080e+00 0.000000e+00
2.401584e-01 9.526309e-01 0.000000e+00
2.456864e-01 1.003702e+00 0.000000e+00
2.187250e-01 1.004080e+00 0.000000e+00
2.229619e-01 1.060000e+00 0.000000e+00
2.456864e-01 1.003702e+00 0.000000e+00
2.512304e-01 1.060000e+00 0.000000e+00
2.401584e-01 9.526309e-01 0.000000e+00
2.456864e-01 1.003702e+00 0.000000e+00
2.658750e-01 9.513291e-01 0.000000e+00
2.725063e-01 1.002626e+00 0.000000e+00
2.456864e-01 1.003702e+00 0.000000e+00
2.512304e-01 1.060000e+00 0.000000e+00
2.725063e-01 1.002626e+00 0.000000e+00
2.792086e-01 1.059189e+00 0.000000e+00
2.658750e-01 9.513291e-01 0.000000e+00
2.725063e-01 1.002626e+00 0.000000e+00
2.912976e-01 9.491978e-01 0.000000e+00
2.990966e-01 1.000506e+00 0.000000e+00
2.725063e-01 1.002626e+00 0.000000e+00
2.792086e-01 1.059189e+00 0.000000e+00
2.990966e-01 1.000506e+00 0.000000e+00
3.072317e-01 1.056520e+00 0.000000e+00
2.912976e-01 9.491978e-01 0.000000e+00
2.990966e-01 1.000506e+00 0.000000e+00
3.164780e-01 9.461644e-01 0.000000e+00
3.255773e-01 9.973396e-01 0.000000e+00
2.990966e-01 1.000506e+00 0.000000e+00
3.072317e-01 1.056520e+00 0.000000e+00
3.255773e-01 9.973396e-01 0.000000e+00
3.352962e-01 1.052764e+00 0.000000e+00
3.164780e-01 9.461644e-01 0.000000e+00
3.255773e-01 9.973396e-01 0.000000e+00
3.414475e-01 9.421934e-01 0.000000e+00
3.519653e-01 9.931179e-01 0.000000e+00
3.255773e-01 9.973396e-01 0.000000e+00
3.352962e-01 1.052764e+00 0.000000e+00
3.519653e-01 9.931179e-01 0.000000e+00
3.632988e-01 1.047948e+00 0.000000e+00
3.414475e-01 9.421934e-01 0.000000e+00
3.519653e-01 9.931179e-01 0.000000e+00
3.662167e-01 9.373054e-01 0.000000e+00
3.782263e-01 9.878903e-01 0.000000e+00
3.519653e-01 9.931179e-01 0.000000e+00
3.632988e-01 1.047948e+00 0.000000e+00
3.782263e-01 9.878903e-01 0.000000e+00
3.911857e-01 1.042122e+00 0.000000e+00
3.662167e-01 9.373054e-01 0.000000e+00
3.782263e-01 9.878903e-01 0.000000e+00
3.907856e-01 9.315250e-01 0.000000e+00
4.043194e-01 9.816956e-01 0.000000e+00
3.782263e-01 9.878903e-01 0.000000e+00
3.911857e-01 1.042122e+00 0.000000e+00
4.043194e-01 9.816956e-01 0.000000e+00
4.189044e-01 1.035318e+00 0.000000e+00
3.907856e-01 9.315250e-01 0.000000e+00
4.043194e-01 9.816956e-01 0.000000e+00
4.151457e-01 9.248795e-01 0.000000e+00
4.302090e-01 9.745708e-01 0.000000e+00
4.043194e-01 9.816956e-01 0.000000e+00
4.189044e-01 1.035318e+00 0.000000e+00
4.302090e-01 9.745708e-01 0.000000e+00
4.464095e-01 1.027564e+00 0.000000e+00
4.151457e-01 9.248795e-01 0.000000e+00
4.302090e-01 9.745708e-01 0.000000e+00
4.392839e-01 9.173953e-01 0.000000e+00
4.558643e-01 9.665500e-01 0.000000e+00
4.302090e-01 9.745708e-01 0.000000e+00
4.464095e-01 1.027564e+00 0.000000e+00
4.558643e-01 9.665500e-01 0.000000e+00
4.736620e-01 1.018890e+00 0.000000e+00
4.392839e-01 9.173953e-01 0.000000e+00
4.558643e-01 9.665500e-01 0.000000e+00
4.631843e-01 9.090973e-01 0.000000e+00
4.812588e-01 9.576647e-01 0.000000e+00
4.558643e-01 9.665500e-01 0.000000e+00
4.736620e-01 1.018890e+00 0.000000e+00
4.812588e-01 9.576647e-01 0.000000e+00
5.006287e-01 1.009325e+00 0.000000e+00
4.631843e-01 9.090973e-01 0.000000e+00
4.812588e-01 9.576647e-01 0.000000e+00
4.868297e-01 9.000094e-01 0.000000e+00
5.063688e-01 9.479445e-01 0.000000e+00
4.812588e-01 9.576647e-01 0.000000e+00
5.006287e-01 1.009325e+00 0.000000e+00
5.063688e-01 9.479445e-01 0.000000e+00
5.272809e-01 9.988968e-01 0.000000e+00
4.868297e-01 9.000094e-01 0.000000e+00
5.063688e-01 9.479445e-01 0.000000e+00
5.102025e-01 8.901546e-01 0.000000e+00
5.311725e-01 9.374170e-01 0.000000e+00
5.063688e-01 9.479445e-01 0.000000e+00
5.272809e-01 9.988968e-01 0.000000e+00
5.311725e-01 9.374170e-01 0.000000e+00
5.535937e-01 9.876328e-01 0.000000e+00
5.102025e-01 8.901546e-01 0.000000e+00
5.311725e-01 9.374170e-01 0.000000e+00
5.332847e-01 8.795548e-01 0.000000e+00
5.556500e-01 9.261080e-01 0.000000e+00
5.311725e-01 9.374170e-01 0.000000e+00
5.535937e-01 9.876328e-01 0.000000e+00
5.556500e-01 9.261080e-01 0.000000e+00
5.795448e-01 9.755589e-01 0.000000e+00
5.332847e-01 8.795548e-01 0.000000e+00
5.556500e-01 9.261080e-01 0.000000e+00
5.560587e-01 8.682312e-01 0.000000e+00
5.797824e-01 9.140420e-01 0.000000e+00
5.556500e-01 9.261080e-01 0.000000e+00
5.795448e-01 9.755589e-01 0.000000e+00
5.797824e-01 9.140420e-01 0.000000e+00
6.051142e-01 9.627002e-01 0.000000e+00
5.560587e-01 8.682312e-01 0.000000e+00
5.797824e-01 9.140420e-01 0.000000e+00
5.785072e-01 8.562046e-01 0.000000e+00
6.035522e-01 9.012423e-01 0.000000e+00
5.797824e-01 9.140420e-01 0.000000e+00
6.051142e-01 9.627002e-01 0.000000e+00
6.035522e-01 9.012423e-01 0.000000e+00
6.302837e-01 9.490804e-01 0.000000e+00
5.785072e-01 8.562046e-01 0.000000e+00
6.035522e-01 9.012423e-01 0.000000e+00
6.006133e-01 8.434947e-01 0.000000e+00
6.269424e-01 8.877310e-01 0.000000e+00
6.035522e-01 9.012423e-01 0.000000e+00
6.302837e-01 9.490804e-01 0.000000e+00
6.269424e-01 8.877310e-01 0.000000e+00
6.550361e-01 9.347224e-01 0.000000e+00
6.006133e-01 8.434947e-01 0.000000e+00
6.269424e-01 8.877310e-01 0.000000e+00
6.223605e-01 8.301211e-01 0.000000e+00
6.499369e-01 8.735294e-01 0.000000e+00
6.269424e-01 8.877310e-01 0.000000e+00
6.550361e-01 9.347224e-01 0.000000e+00
6.499369e-01 8.735294e-01 0.000000e+00
6.793554e-01 9.196482e-01 0.000000e+00
6.223605e-01 8.301211e-01 0.000000e+00
6.499369e-01 8.735294e-01 0.000000e+00
6.437329e-01 8.161027e-01 0.000000e+00
6.725203e-01 8.586579e-01 0.000000e+00
6.499369e-01 8.735294e-01 0.000000e+00
6.793554e-01 9.196482e-01 0.000000e+00
6.725203e-01 8.586579e-01 0.000000e+00
7.032267e-01 9.038789e-01 0.000000e+00
6.437329e-01 8.161027e-01 0.000000e+00
6.725203e-01 8.586579e-01 0.000000e+00
6.647152e-01 8.014578e-01 0.000000e+00
6.946778e-01 8.431363e-01 0.000000e+00
6.725203e-01 8.586579e-01 0.000000e+00
7.032267e-01 9.038789e-01 0.000000e+00
6.946778e-01 8.431363e-01 0.000000e+00
7.266354e-01 8.874350e-01 0.000000e+00
6.647152e-01 8.014578e-01 0.000000e+00
6.946778e-01 8.431363e-01 0.000000e+00
6.852923e-01 7.862047e-01 0.000000e+00
7.163951e-01 8.269837e-01 0.000000e+00
6.946778e-01 8.431363e-01 0.000000e+00
7.266354e-01 8.874350e-01 0.000000e+00
7.163951e-01 8.269837e-01 0.000000e+00
7.495676e-01 8.703363e-01 0.000000e+00
6.852923e-01 7.862047e-01 0.000000e+00
7.163951e-01 8.269837e-01 0.000000e+00
7.054499e-01 7.703610e-01 0.000000e+00
7.376583e-01 8.102190e-01 0.000000e+00
7.163951e-01 8.269837e-01 0.000000e+00
7.495676e-01 8.703363e-01 0.000000e+00
7.376583e-01 8.102190e-01 0.000000e+00
7.720099e-01 8.526022e-01 0.000000e+00
7.054499e-01 7.703610e-01 0.000000e+00
7.376583e-01 8.102190e-01 0.000000e+00
7.251740e-01 7.539443e-01 0.000000e+00
7.584540e-01 7.928603e-01 0.000000e+00
7.376583e-01 8.102190e-01 0.000000e+00
7.720099e-01 8.526022e-01 0.000000e+00
7.584540e-01 7.928603e-01 0.000000e+00
7.939494e-01 8.342516e-01 0.000000e+00
7.251740e-01 7.539443e-01 0.000000e+00
7.584540e-01 7.928603e-01 0.000000e+00
7.444512e-01 7.369717e-01 0.000000e+00
7.787694e-01 7.749257e-01 0.000000e+00
7.584540e-01 7.928603e-01 0.000000e+00
7.939494e-01 8.342516e-01 0.000000e+00
7.787694e-01 7.749257e-01 0.000000e+00
8.153736e-01 8.153031e-01 0.000000e+00
7.444512e-01 7.369717e-01 0.000000e+00
[...]
<PointData>
<DataArray type="Float32" Name="V1" format="ascii">
1.295603e+01
5.485571e+00
1.294573e+01
5.475267e+00
5.813596e+00
1.338427e+00
5.831105e+00
1.355936e+00
1.291060e+01
5.512713e+00
1.288146e+01
5.483576e+00
5.820336e+00
1.357293e+00
5.864418e+00
1.401375e+00
1.280767e+01
5.559415e+00
1.275835e+01
5.510096e+00
5.844246e+00
1.407853e+00
5.921956e+00
1.485562e+00
1.264123e+01
5.629907e+00
1.256924e+01
5.557919e+00
5.887992e+00
1.498490e+00
6.008359e+00
1.618857e+00
1.240290e+01
5.729138e+00
1.230598e+01
5.632219e+00
5.953903e+00
1.642301e+00
6.131120e+00
1.819518e+00
1.208451e+01
5.862909e+00
1.196200e+01
5.740404e+00
6.044545e+00
1.861453e+00
6.300328e+00
2.117236e+00
1.168236e+01
6.037018e+00
1.153731e+01
5.891969e+00
6.160570e+00
2.193467e+00
6.527485e+00
2.560382e+00
1.120520e+01
6.255373e+00
1.104505e+01
6.095222e+00
6.292832e+00
2.703947e+00
6.819829e+00
3.230943e+00
1.067715e+01
6.520202e+00
1.051946e+01
6.362509e+00
6.370234e+00
3.545489e+00
7.121003e+00
4.296258e+00
1.011761e+01
6.880071e+00
9.990394e+00
6.752852e+00
6.350771e+00
5.028945e+00
7.040995e+00
5.719169e+00
9.682876e+00
7.090061e+00
9.574195e+00
6.981380e+00
6.809192e+00
5.785095e+00
7.082137e+00
6.058040e+00
9.354326e+00
7.210692e+00
9.284051e+00
7.140417e+00
7.033556e+00
6.074420e+00
7.232032e+00
6.272895e+00
9.132770e+00
7.298068e+00
9.091633e+00
7.256931e+00
7.168484e+00
6.306537e+00
7.322598e+00
6.460652e+00
8.994836e+00
7.361583e+00
8.981169e+00
7.347916e+00
7.272032e+00
6.491082e+00
7.398434e+00
6.617484e+00
8.917727e+00
7.418295e+00
8.925247e+00
7.425815e+00
7.359532e+00
6.642095e+00
7.465366e+00
6.747929e+00
8.883716e+00
7.472590e+00
8.906334e+00
7.495208e+00
7.437652e+00
6.765827e+00
7.527318e+00
6.855492e+00
8.879603e+00
7.525550e+00
8.912488e+00
7.558435e+00
7.508892e+00
6.867427e+00
7.585516e+00
6.944050e+00
8.896150e+00
7.577040e+00
8.935707e+00
7.616598e+00
7.574381e+00
6.951175e+00
7.640376e+00
7.017170e+00
8.926834e+00
7.626705e+00
8.970451e+00
7.670322e+00
7.634747e+00
7.020627e+00
7.692026e+00
7.077906e+00
8.967000e+00
7.674243e+00
9.012790e+00
7.720033e+00
7.690452e+00
7.078660e+00
7.740545e+00
7.128753e+00
9.013279e+00
7.719463e+00
9.059890e+00
7.766075e+00
7.741896e+00
7.127566e+00
7.786026e+00
7.171695e+00
9.063219e+00
7.762278e+00
9.109691e+00
7.808750e+00
7.789444e+00
7.169148e+00
7.828592e+00
7.208295e+00
9.115032e+00
7.802675e+00
9.160688e+00
7.848332e+00
7.833432e+00
7.204823e+00
7.868386e+00
7.239777e+00
9.167416e+00
7.840696e+00
9.211793e+00
7.885073e+00
7.874167e+00
7.235702e+00
7.905562e+00
7.267098e+00
9.219436e+00
7.876414e+00
9.262224e+00
7.919203e+00
7.911927e+00
7.262660e+00
7.940280e+00
7.291013e+00
9.270425e+00
7.909927e+00
9.311429e+00
7.950931e+00
7.946967e+00
7.286386e+00
7.972697e+00
7.312116e+00
9.319921e+00
7.941341e+00
9.359030e+00
7.980450e+00
7.979513e+00
7.307424e+00
8.002965e+00
7.330876e+00
9.367615e+00
7.970768e+00
9.404779e+00
8.007932e+00
8.009771e+00
7.326211e+00
8.031227e+00
7.347668e+00
9.413311e+00
7.998322e+00
9.448523e+00
8.033533e+00
8.037924e+00
7.343094e+00
8.057622e+00
7.362791e+00
9.456895e+00
8.024113e+00
9.490180e+00
8.057397e+00
8.064140e+00
7.358351e+00
8.082275e+00
7.376486e+00
9.498318e+00
8.048250e+00
9.529721e+00
8.079653e+00
8.088567e+00
7.372211e+00
8.105305e+00
7.388949e+00
9.537574e+00
8.070835e+00
9.567155e+00
8.100416e+00
8.111340e+00
7.384857e+00
8.126822e+00
7.400339e+00
9.574688e+00
8.091965e+00
9.602517e+00
8.119794e+00
8.132582e+00
7.396440e+00
8.146927e+00
7.410786e+00
9.609709e+00
8.111732e+00
9.635861e+00
8.137884e+00
8.152402e+00
7.407086e+00
8.165714e+00
7.420397e+00
9.642703e+00
8.130220e+00
9.667254e+00
8.154772e+00
8.170902e+00
7.416896e+00
8.183269e+00
7.429263e+00
9.673741e+00
8.147510e+00
9.696770e+00
8.170539e+00
8.188171e+00
7.425959e+00
8.199671e+00
7.437459e+00
9.702904e+00
8.163677e+00
9.724486e+00
8.185258e+00
8.204293e+00
7.434347e+00
8.214994e+00
7.445048e+00
9.730274e+00
8.178788e+00
9.750483e+00
8.198997e+00
8.219342e+00
7.442123e+00
8.229304e+00
7.452084e+00
9.755933e+00
8.192908e+00
9.774840e+00
8.211815e+00
8.233389e+00
7.449339e+00
8.242664e+00
7.458614e+00
9.779961e+00
8.206095e+00
9.797635e+00
8.223769e+00
8.246494e+00
7.456041e+00
8.255130e+00
7.464677e+00
9.802440e+00
8.218406e+00
9.818944e+00
8.234910e+00
8.258716e+00
7.462269e+00
8.266754e+00
7.470307e+00
9.823443e+00
8.229889e+00
9.838839e+00
8.245284e+00
8.270108e+00
7.468058e+00
8.277586e+00
7.475536e+00
9.843045e+00
8.240592e+00
9.857388e+00
8.254935e+00
8.280716e+00
7.473438e+00
8.287668e+00
7.480390e+00
9.861314e+00
8.250558e+00
9.874657e+00
8.263901e+00
8.290585e+00
7.478436e+00
8.297041e+00
7.484892e+00
9.878313e+00
8.259825e+00
9.890707e+00
8.272219e+00
8.299755e+00
7.483075e+00
8.305743e+00
7.489063e+00
9.894105e+00
8.268431e+00
9.905594e+00
8.279920e+00
8.308262e+00
7.487377e+00
8.313808e+00
7.492922e+00
9.908746e+00
8.276409e+00
9.919372e+00
8.287036e+00
8.316141e+00
7.491360e+00
8.321266e+00
7.496485e+00
9.922287e+00
8.283789e+00
9.932091e+00
8.293593e+00
8.323422e+00
7.495042e+00
8.328147e+00
7.499767e+00
9.934778e+00
8.290600e+00
9.943794e+00
8.299616e+00
8.330134e+00
7.498438e+00
8.334476e+00
7.502781e+00
9.946264e+00
8.296867e+00
9.954525e+00
8.305129e+00
8.336300e+00
7.501561e+00
8.340278e+00
7.505539e+00
9.956785e+00
8.302614e+00
9.964322e+00
8.310151e+00
8.341946e+00
7.504424e+00
8.345573e+00
7.508051e+00
9.966379e+00
8.307861e+00
9.973218e+00
8.314700e+00
8.347091e+00
7.507037e+00
8.350382e+00
7.510328e+00
9.975080e+00
8.312628e+00
9.981246e+00
8.318795e+00
8.351755e+00
7.509411e+00
8.354721e+00
7.512377e+00
9.982919e+00
8.316933e+00
9.988435e+00
8.322449e+00
8.355954e+00
7.511554e+00
8.358607e+00
7.514207e+00
9.989924e+00
8.320791e+00
9.994808e+00
8.325675e+00
8.359705e+00
7.513474e+00
8.362054e+00
7.515823e+00
9.996120e+00
8.324216e+00
1.000039e+01
8.328486e+00
8.363020e+00
7.515178e+00
8.365074e+00
7.517232e+00
1.000153e+01
8.327220e+00
1.000520e+01
8.330891e+00
8.365912e+00
7.516672e+00
8.367677e+00
7.518438e+00
1.000617e+01
8.329813e+00
1.000925e+01
8.332898e+00
8.368390e+00
7.517962e+00
8.369873e+00
7.519445e+00
1.001005e+01
8.332006e+00
1.001256e+01
8.334515e+00
8.370463e+00
7.519051e+00
8.371670e+00
7.520258e+00
1.001320e+01
8.333805e+00
1.001514e+01
8.335748e+00
8.372140e+00
7.519945e+00
8.373074e+00
7.520879e+00
1.001562e+01
8.335218e+00
1.001700e+01
8.336600e+00
8.373425e+00
7.520645e+00
8.374090e+00
7.521310e+00
1.001732e+01
8.336248e+00
1.001815e+01
8.337076e+00
8.374323e+00
7.521154e+00
8.374721e+00
7.521552e+00
1.001831e+01
8.336900e+00
1.001858e+01
8.337175e+00
8.374838e+00
7.521474e+00
8.374970e+00
7.521607e+00
</DataArray>
<DataArray type="Float32" Name="V2" format="ascii">
9.532061e-01
1.002975e+00
9.536078e-01
1.003376e+00
1.002975e+00
1.060000e+00
1.003376e+00
1.060359e+00
9.536078e-01
1.003376e+00
9.548034e-01
1.004576e+00
1.003376e+00
1.060359e+00
1.004576e+00
1.061437e+00
9.548034e-01
1.004576e+00
9.567816e-01
1.006571e+00
1.004576e+00
1.061437e+00
1.006571e+00
1.063236e+00
9.567816e-01
1.006571e+00
9.595185e-01
1.009350e+00
1.006571e+00
1.063236e+00
1.009350e+00
1.065759e+00
9.595185e-01
1.009350e+00
9.629744e-01
1.012894e+00
1.009350e+00
1.065759e+00
1.012894e+00
1.069010e+00
9.629744e-01
1.012894e+00
9.670875e-01
1.017162e+00
1.012894e+00
1.069010e+00
1.017162e+00
1.072992e+00
9.670875e-01
1.017162e+00
9.717640e-01
1.022082e+00
1.017162e+00
1.072992e+00
1.022082e+00
1.077710e+00
9.717640e-01
1.022082e+00
9.768640e-01
1.027511e+00
1.022082e+00
1.077710e+00
1.027511e+00
1.083162e+00
9.768640e-01
1.027511e+00
9.821867e-01
1.033208e+00
1.027511e+00
1.083162e+00
1.033208e+00
1.089328e+00
9.821867e-01
1.033208e+00
9.875180e-01
1.038865e+00
1.033208e+00
1.089328e+00
1.038865e+00
1.095333e+00
9.875180e-01
1.038865e+00
9.926160e-01
1.044119e+00
1.038865e+00
1.095333e+00
1.044119e+00
1.100243e+00
9.926160e-01
1.044119e+00
9.974125e-01
1.048996e+00
1.044119e+00
1.100243e+00
1.048996e+00
1.104823e+00
9.974125e-01
1.048996e+00
1.001877e+00
1.053500e+00
1.048996e+00
1.104823e+00
1.053500e+00
1.109084e+00
1.001877e+00
1.053500e+00
1.006032e+00
1.057674e+00
1.053500e+00
1.109084e+00
1.057674e+00
1.113068e+00
1.006032e+00
1.057674e+00
1.009902e+00
1.061549e+00
1.057674e+00
1.113068e+00
1.061549e+00
1.116793e+00
1.009902e+00
1.061549e+00
1.013512e+00
1.065152e+00
1.061549e+00
1.116793e+00
1.065152e+00
1.120277e+00
1.013512e+00
1.065152e+00
1.016883e+00
1.068507e+00
1.065152e+00
1.120277e+00
1.068507e+00
1.123535e+00
1.016883e+00
1.068507e+00
1.020036e+00
1.071636e+00
1.068507e+00
1.123535e+00
1.071636e+00
1.126585e+00
1.020036e+00
1.071636e+00
1.022990e+00
1.074560e+00
1.071636e+00
1.126585e+00
1.074560e+00
1.129441e+00
1.022990e+00
1.074560e+00
1.025759e+00
1.077295e+00
1.074560e+00
1.129441e+00
1.077295e+00
1.132119e+00
1.025759e+00
1.077295e+00
1.028359e+00
1.079858e+00
1.077295e+00
1.132119e+00
1.079858e+00
1.134631e+00
1.028359e+00
1.079858e+00
1.030802e+00
1.082263e+00
1.079858e+00
1.134631e+00
1.082263e+00
1.136991e+00
1.030802e+00
1.082263e+00
1.033101e+00
1.084522e+00
1.082263e+00
1.136991e+00
1.084522e+00
1.139210e+00
1.033101e+00
1.084522e+00
1.035266e+00
1.086647e+00
1.084522e+00
1.139210e+00
1.086647e+00
1.141299e+00
1.035266e+00
1.086647e+00
1.037306e+00
1.088648e+00
1.086647e+00
1.141299e+00
1.088648e+00
1.143267e+00
1.037306e+00
1.088648e+00
1.039231e+00
1.090535e+00
1.088648e+00
1.143267e+00
1.090535e+00
1.145123e+00
1.039231e+00
1.090535e+00
1.041048e+00
1.092315e+00
1.090535e+00
1.145123e+00
1.092315e+00
1.146874e+00
1.041048e+00
1.092315e+00
1.042765e+00
1.093996e+00
1.092315e+00
1.146874e+00
1.093996e+00
1.148529e+00
1.042765e+00
1.093996e+00
1.044388e+00
1.095585e+00
1.093996e+00
1.148529e+00
1.095585e+00
1.150093e+00
1.044388e+00
1.095585e+00
1.045924e+00
1.097088e+00
1.095585e+00
1.150093e+00
1.097088e+00
1.151572e+00
1.045924e+00
1.097088e+00
1.047377e+00
1.098509e+00
1.097088e+00
1.151572e+00
1.098509e+00
1.152972e+00
1.047377e+00
1.098509e+00
1.048752e+00
1.099855e+00
1.098509e+00
1.152972e+00
1.099855e+00
1.154297e+00
1.048752e+00
1.099855e+00
1.050055e+00
1.101129e+00
1.099855e+00
1.154297e+00
1.101129e+00
1.155552e+00
1.050055e+00
1.101129e+00
1.051288e+00
1.102335e+00
1.101129e+00
1.155552e+00
1.102335e+00
1.156741e+00
1.051288e+00
1.102335e+00
1.052456e+00
1.103477e+00
1.102335e+00
1.156741e+00
1.103477e+00
1.157866e+00
1.052456e+00
1.103477e+00
1.053561e+00
1.104559e+00
1.103477e+00
1.157866e+00
1.104559e+00
1.158932e+00
1.053561e+00
1.104559e+00
1.054608e+00
1.105583e+00
1.104559e+00
1.158932e+00
1.105583e+00
1.159941e+00
1.054608e+00
1.105583e+00
1.055598e+00
1.106552e+00
1.105583e+00
1.159941e+00
1.106552e+00
1.160896e+00
1.055598e+00
1.106552e+00
1.056534e+00
1.107468e+00
1.106552e+00
1.160896e+00
1.107468e+00
1.161799e+00
1.056534e+00
1.107468e+00
1.057419e+00
1.108334e+00
1.107468e+00
1.161799e+00
1.108334e+00
1.162652e+00
1.057419e+00
1.108334e+00
1.058254e+00
1.109152e+00
1.108334e+00
1.162652e+00
1.109152e+00
1.163459e+00
1.058254e+00
1.109152e+00
1.059042e+00
1.109923e+00
1.109152e+00
1.163459e+00
1.109923e+00
1.164219e+00
1.059042e+00
1.109923e+00
1.059783e+00
1.110650e+00
1.109923e+00
1.164219e+00
1.110650e+00
1.164935e+00
1.059783e+00
1.110650e+00
1.060481e+00
1.111333e+00
1.110650e+00
1.164935e+00
1.111333e+00
1.165609e+00
1.060481e+00
1.111333e+00
1.061135e+00
1.111974e+00
1.111333e+00
1.165609e+00
1.111974e+00
1.166241e+00
1.061135e+00
1.111974e+00
1.061748e+00
1.112574e+00
1.111974e+00
1.166241e+00
1.112574e+00
1.166833e+00
1.061748e+00
1.112574e+00
1.062321e+00
1.113135e+00
1.112574e+00
1.166833e+00
1.113135e+00
1.167386e+00
1.062321e+00
1.113135e+00
1.062854e+00
1.113658e+00
1.113135e+00
1.167386e+00
1.113658e+00
1.167902e+00
1.062854e+00
1.113658e+00
1.063348e+00
1.114143e+00
1.113658e+00
1.167902e+00
1.114143e+00
1.168380e+00
1.063348e+00
1.114143e+00
1.063805e+00
1.114591e+00
1.114143e+00
1.168380e+00
1.114591e+00
1.168822e+00
1.063805e+00
1.114591e+00
1.064226e+00
1.115003e+00
1.114591e+00
1.168822e+00
1.115003e+00
1.169229e+00
1.064226e+00
1.115003e+00
1.064610e+00
1.115380e+00
1.115003e+00
1.169229e+00
1.115380e+00
1.169601e+00
1.064610e+00
1.115380e+00
1.064959e+00
1.115722e+00
1.115380e+00
1.169601e+00
1.115722e+00
1.169939e+00
1.064959e+00
1.115722e+00
1.065273e+00
1.116031e+00
1.115722e+00
1.169939e+00
1.116031e+00
1.170243e+00
1.065273e+00
1.116031e+00
1.065553e+00
1.116305e+00
1.116031e+00
1.170243e+00
1.116305e+00
1.170514e+00
1.065553e+00
1.116305e+00
1.065799e+00
1.116546e+00
1.116305e+00
1.170514e+00
1.116546e+00
1.170752e+00
1.065799e+00
1.116546e+00
1.066011e+00
1.116755e+00
1.116546e+00
1.170752e+00
1.116755e+00
1.170957e+00
1.066011e+00
1.116755e+00
1.066190e+00
1.116930e+00
1.116755e+00
1.170957e+00
1.116930e+00
1.171131e+00
1.066190e+00
1.116930e+00
1.066336e+00
1.117074e+00
1.116930e+00
1.171131e+00
1.117074e+00
1.171272e+00
1.066336e+00
1.117074e+00
1.066450e+00
1.117185e+00
1.117074e+00
1.171272e+00
1.117185e+00
1.171382e+00
1.066450e+00
1.117185e+00
1.066531e+00
1.117265e+00
1.117185e+00
1.171382e+00
1.117265e+00
1.171461e+00
1.066531e+00
1.117265e+00
1.066579e+00
1.117312e+00
1.117265e+00
1.171461e+00
1.117312e+00
1.171508e+00
1.066579e+00
1.117312e+00
1.066596e+00
1.117328e+00
1.117312e+00
1.171508e+00
1.117328e+00
1.171523e+00
</DataArray>
<DataArray type="Float32" Name="V3" format="ascii">
0.000000e+00
0.000000e+00
3.289801e-03
2.347676e-03
0.000000e+00
0.000000e+00
2.347676e-03
1.187180e-03
3.289801e-03
2.347676e-03
6.517924e-03
4.659663e-03
2.347676e-03
1.187180e-03
4.659663e-03
2.364597e-03
6.517924e-03
4.659663e-03
9.621659e-03
6.899557e-03
4.659663e-03
2.364597e-03
6.899557e-03
3.522676e-03
9.621659e-03
6.899557e-03
1.253705e-02
9.028616e-03
6.899557e-03
3.522676e-03
9.028616e-03
4.651019e-03
1.253705e-02
9.028616e-03
1.519910e-02
1.100393e-02
9.028616e-03
4.651019e-03
1.100393e-02
5.737099e-03
1.519910e-02
1.100393e-02
1.754378e-02
1.277499e-02
1.100393e-02
5.737099e-03
1.277499e-02
6.763190e-03
1.754378e-02
1.277499e-02
1.951248e-02
1.427834e-02
1.277499e-02
6.763190e-03
1.427834e-02
7.701232e-03
1.951248e-02
1.427834e-02
2.105809e-02
1.543377e-02
1.427834e-02
7.701232e-03
1.543377e-02
8.506171e-03
2.105809e-02
1.543377e-02
2.215676e-02
1.618172e-02
1.543377e-02
8.506171e-03
1.618172e-02
9.059363e-03
2.215676e-02
1.618172e-02
2.290589e-02
1.667428e-02
1.618172e-02
9.059363e-03
1.667428e-02
9.211975e-03
2.290589e-02
1.667428e-02
2.332898e-02
1.694007e-02
1.667428e-02
9.211975e-03
1.694007e-02
9.600286e-03
2.332898e-02
1.694007e-02
2.353091e-02
1.714177e-02
1.694007e-02
9.600286e-03
1.714177e-02
1.009228e-02
2.353091e-02
1.714177e-02
2.359144e-02
1.734272e-02
1.714177e-02
1.009228e-02
1.734272e-02
1.062346e-02
2.359144e-02
1.734272e-02
2.355383e-02
1.753805e-02
1.734272e-02
1.062346e-02
1.753805e-02
1.116760e-02
2.355383e-02
1.753805e-02
2.344774e-02
1.771668e-02
1.753805e-02
1.116760e-02
1.771668e-02
1.170314e-02
2.344774e-02
1.771668e-02
2.329150e-02
1.787015e-02
1.771668e-02
1.170314e-02
1.787015e-02
1.221417e-02
2.329150e-02
1.787015e-02
2.309699e-02
1.799347e-02
1.787015e-02
1.221417e-02
1.799347e-02
1.268936e-02
2.309699e-02
1.799347e-02
2.287210e-02
1.808407e-02
1.799347e-02
1.268936e-02
1.808407e-02
1.312119e-02
2.287210e-02
1.808407e-02
2.262217e-02
1.814087e-02
1.808407e-02
1.312119e-02
1.814087e-02
1.350507e-02
2.262217e-02
1.814087e-02
2.235086e-02
1.816372e-02
1.814087e-02
1.350507e-02
1.816372e-02
1.383863e-02
2.235086e-02
1.816372e-02
2.206072e-02
1.815300e-02
1.816372e-02
1.383863e-02
1.815300e-02
1.412107e-02
2.206072e-02
1.815300e-02
2.175351e-02
1.810941e-02
1.815300e-02
1.412107e-02
1.810941e-02
1.435270e-02
2.175351e-02
1.810941e-02
2.143046e-02
1.803387e-02
1.810941e-02
1.435270e-02
1.803387e-02
1.453459e-02
2.143046e-02
1.803387e-02
2.109247e-02
1.792744e-02
1.803387e-02
1.453459e-02
1.792744e-02
1.466829e-02
2.109247e-02
1.792744e-02
2.074018e-02
1.779123e-02
1.792744e-02
1.466829e-02
1.779123e-02
1.475567e-02
2.074018e-02
1.779123e-02
2.037404e-02
1.762641e-02
1.779123e-02
1.475567e-02
1.762641e-02
1.479877e-02
2.037404e-02
1.762641e-02
1.999445e-02
1.743413e-02
1.762641e-02
1.479877e-02
1.743413e-02
1.479972e-02
1.999445e-02
1.743413e-02
1.960169e-02
1.721558e-02
1.743413e-02
1.479972e-02
1.721558e-02
1.476066e-02
1.960169e-02
1.721558e-02
1.919606e-02
1.697189e-02
1.721558e-02
1.476066e-02
1.697189e-02
1.468371e-02
1.919606e-02
1.697189e-02
1.877779e-02
1.670418e-02
1.697189e-02
1.468371e-02
1.670418e-02
1.457094e-02
1.877779e-02
1.670418e-02
1.834714e-02
1.641356e-02
1.670418e-02
1.457094e-02
1.641356e-02
1.442434e-02
1.834714e-02
1.641356e-02
1.790436e-02
1.610107e-02
1.641356e-02
1.442434e-02
1.610107e-02
1.424581e-02
1.790436e-02
1.610107e-02
1.744971e-02
1.576773e-02
1.610107e-02
1.424581e-02
1.576773e-02
1.403718e-02
1.744971e-02
1.576773e-02
1.698347e-02
1.541453e-02
1.576773e-02
1.403718e-02
1.541453e-02
1.380019e-02
1.698347e-02
1.541453e-02
1.650592e-02
1.504242e-02
1.541453e-02
1.380019e-02
1.504242e-02
1.353646e-02
1.650592e-02
1.504242e-02
1.601736e-02
1.465232e-02
1.504242e-02
1.353646e-02
1.465232e-02
1.324755e-02
1.601736e-02
1.465232e-02
1.551810e-02
1.424510e-02
1.465232e-02
1.324755e-02
1.424510e-02
1.293494e-02
1.551810e-02
1.424510e-02
1.500847e-02
1.382162e-02
1.424510e-02
1.293494e-02
1.382162e-02
1.260002e-02
1.500847e-02
1.382162e-02
1.448880e-02
1.338270e-02
1.382162e-02
1.260002e-02
1.338270e-02
1.224411e-02
1.448880e-02
1.338270e-02
1.395945e-02
1.292913e-02
1.338270e-02
1.224411e-02
1.292913e-02
1.186846e-02
1.395945e-02
1.292913e-02
1.342076e-02
1.246169e-02
1.292913e-02
1.186846e-02
1.246169e-02
1.147427e-02
1.342076e-02
1.246169e-02
1.287310e-02
1.198110e-02
1.246169e-02
1.147427e-02
1.198110e-02
1.106267e-02
1.287310e-02
1.198110e-02
1.231684e-02
1.148811e-02
1.198110e-02
1.106267e-02
1.148811e-02
1.063474e-02
1.231684e-02
1.148811e-02
1.175237e-02
1.098340e-02
1.148811e-02
1.063474e-02
1.098340e-02
1.019151e-02
1.175237e-02
1.098340e-02
1.118006e-02
1.046766e-02
1.098340e-02
1.019151e-02
1.046766e-02
9.733970e-03
1.118006e-02
1.046766e-02
1.060032e-02
9.941563e-03
1.046766e-02
9.733970e-03
9.941563e-03
9.263070e-03
1.060032e-02
9.941563e-03
1.001353e-02
9.405750e-03
9.941563e-03
9.263070e-03
9.405750e-03
8.779720e-03
1.001353e-02
9.405750e-03
9.420095e-03
8.860861e-03
9.405750e-03
8.779720e-03
8.860861e-03
8.284799e-03
9.420095e-03
8.860861e-03
8.820416e-03
8.307518e-03
8.860861e-03
8.284799e-03
8.307518e-03
7.779156e-03
8.820416e-03
8.307518e-03
8.214898e-03
7.746332e-03
8.307518e-03
7.779156e-03
7.746332e-03
7.263611e-03
8.214898e-03
7.746332e-03
7.603951e-03
7.177903e-03
7.746332e-03
7.263611e-03
7.177903e-03
6.738963e-03
7.603951e-03
7.177903e-03
6.987985e-03
6.602822e-03
7.177903e-03
6.738963e-03
6.602822e-03
6.205988e-03
6.987985e-03
6.602822e-03
6.367412e-03
6.021672e-03
6.602822e-03
6.205988e-03
6.021672e-03
5.665440e-03
6.367412e-03
6.021672e-03
5.742647e-03
5.435027e-03
6.021672e-03
5.665440e-03
5.435027e-03
5.118061e-03
5.742647e-03
5.435027e-03
5.114104e-03
4.843455e-03
5.435027e-03
5.118061e-03
4.843455e-03
4.564573e-03
5.114104e-03
4.843455e-03
4.482202e-03
4.247517e-03
4.843455e-03
4.564573e-03
4.247517e-03
4.005687e-03
4.482202e-03
4.247517e-03
3.847357e-03
3.647771e-03
4.247517e-03
4.005687e-03
3.647771e-03
3.442102e-03
3.847357e-03
3.647771e-03
3.209989e-03
3.044768e-03
3.647771e-03
3.442102e-03
3.044768e-03
2.874507e-03
3.209989e-03
3.044768e-03
2.570518e-03
2.439056e-03
3.044768e-03
2.874507e-03
2.439056e-03
2.303583e-03
2.570518e-03
2.439056e-03
1.929362e-03
1.831182e-03
2.439056e-03
2.303583e-03
1.831182e-03
1.730004e-03
1.929362e-03
1.831182e-03
1.286943e-03
1.221687e-03
1.831182e-03
1.730004e-03
1.221687e-03
1.154437e-03
1.286943e-03
1.221687e-03
6.436823e-04
6.111131e-04
1.221687e-03
1.154437e-03
6.111131e-04
5.775490e-04
6.436823e-04
6.111131e-04
0.000000e+00
0.000000e+00
6.111131e-04
5.775490e-04
0.000000e+00
0.000000e+00
</DataArray>
<DataArray type="Float32" Name="V4" format="ascii">
8.500000e-01
9.250000e-01
8.500000e-01
9.250000e-01
9.250000e-01
1.000000e+00