<?xml version="1.0"?>
<VTKFile type="UnstructuredGrid" version="0.1" byte_order="LittleEndian" compressor="vtkZLibDataCompressor">
<UnstructuredGrid>
<Piece NumberOfPoints="504" NumberOfCells="126">
<Points>
<DataArray type="Float32" NumberOfComponents="3" format="ascii">
0.000000e+00 4.418007e-01 0.000000e+00
0.000000e+00 4.686362e-01 0.000000e+00
3.701098e-02 4.418088e-01 0.000000e+00
3.700553e-02 4.686385e-01 0.000000e+00
0.000000e+00 4.686362e-01 0.000000e+00
0.000000e+00 5.001953e-01 0.000000e+00
3.700553e-02 4.686385e-01 0.000000e+00
3.700285e-02 5.001953e-01 0.000000e+00
3.701098e-02 4.418088e-01 0.000000e+00
3.700553e-02 4.686385e-01 0.000000e+00
7.402095e-02 4.418232e-01 0.000000e+00
7.400998e-02 4.686463e-01 0.000000e+00
3.700553e-02 4.686385e-01 0.000000e+00
3.700285e-02 5.001953e-01 0.000000e+00
7.400998e-02 4.686463e-01 0.000000e+00
7.400454e-02 5.001953e-01 0.000000e+00
7.402095e-02 4.418232e-01 0.000000e+00
7.400998e-02 4.686463e-01 0.000000e+00
1.110285e-01 4.418472e-01 0.000000e+00
1.110121e-01 4.686594e-01 0.000000e+00
7.400998e-02 4.686463e-01 0.000000e+00
7.400454e-02 5.001953e-01 0.000000e+00
1.110121e-01 4.686594e-01 0.000000e+00
1.110039e-01 5.001953e-01 0.000000e+00
1.110285e-01 4.418472e-01 0.000000e+00
1.110121e-01 4.686594e-01 0.000000e+00
1.480324e-01 4.418808e-01 0.000000e+00
1.480106e-01 4.686776e-01 0.000000e+00
1.110121e-01 4.686594e-01 0.000000e+00
1.110039e-01 5.001953e-01 0.000000e+00
1.480106e-01 4.686776e-01 0.000000e+00
1.479997e-01 5.001953e-01 0.000000e+00
1.480324e-01 4.418808e-01 0.000000e+00
1.480106e-01 4.686776e-01 0.000000e+00
1.850316e-01 4.419240e-01 0.000000e+00
1.850043e-01 4.687009e-01 0.000000e+00
1.480106e-01 4.686776e-01 0.000000e+00
1.479997e-01 5.001953e-01 0.000000e+00
1.850043e-01 4.687009e-01 0.000000e+00
1.849909e-01 5.001953e-01 0.000000e+00
1.850316e-01 4.419240e-01 0.000000e+00
1.850043e-01 4.687009e-01 0.000000e+00
2.220246e-01 4.419767e-01 0.000000e+00
2.219921e-01 4.687295e-01 0.000000e+00
1.850043e-01 4.687009e-01 0.000000e+00
1.849909e-01 5.001953e-01 0.000000e+00
2.219921e-01 4.687295e-01 0.000000e+00
2.219761e-01 5.001953e-01 0.000000e+00
2.220246e-01 4.419767e-01 0.000000e+00
2.219921e-01 4.687295e-01 0.000000e+00
2.590104e-01 4.420389e-01 0.000000e+00
2.589727e-01 4.687632e-01 0.000000e+00
2.219921e-01 4.687295e-01 0.000000e+00
2.219761e-01 5.001953e-01 0.000000e+00
2.589727e-01 4.687632e-01 0.000000e+00
2.589542e-01 5.001953e-01 0.000000e+00
2.590104e-01 4.420389e-01 0.000000e+00
2.589727e-01 4.687632e-01 0.000000e+00
2.959877e-01 4.421106e-01 0.000000e+00
2.959449e-01 4.688020e-01 0.000000e+00
2.589727e-01 4.687632e-01 0.000000e+00
2.589542e-01 5.001953e-01 0.000000e+00
2.959449e-01 4.688020e-01 0.000000e+00
2.959240e-01 5.001953e-01 0.000000e+00
2.959877e-01 4.421106e-01 0.000000e+00
2.959449e-01 4.688020e-01 0.000000e+00
3.329551e-01 4.421916e-01 0.000000e+00
3.329074e-01 4.688459e-01 0.000000e+00
2.959449e-01 4.688020e-01 0.000000e+00
2.959240e-01 5.001953e-01 0.000000e+00
3.329074e-01 4.688459e-01 0.000000e+00
3.328843e-01 5.001953e-01 0.000000e+00
3.329551e-01 4.421916e-01 0.000000e+00
3.329074e-01 4.688459e-01 0.000000e+00
3.699114e-01 4.422820e-01 0.000000e+00
3.698589e-01 4.688948e-01 0.000000e+00
3.329074e-01 4.688459e-01 0.000000e+00
3.328843e-01 5.001953e-01 0.000000e+00
3.698589e-01 4.688948e-01 0.000000e+00
3.698337e-01 5.001953e-01 0.000000e+00
3.699114e-01 4.422820e-01 0.000000e+00
3.698589e-01 4.688948e-01 0.000000e+00
4.068552e-01 4.423816e-01 0.000000e+00
4.067982e-01 4.689488e-01 0.000000e+00
3.698589e-01 4.688948e-01 0.000000e+00
3.698337e-01 5.001953e-01 0.000000e+00
4.067982e-01 4.689488e-01 0.000000e+00
4.067710e-01 5.001953e-01 0.000000e+00
4.068552e-01 4.423816e-01 0.000000e+00
4.067982e-01 4.689488e-01 0.000000e+00
4.437852e-01 4.424905e-01 0.000000e+00
4.437238e-01 4.690078e-01 0.000000e+00
4.067982e-01 4.689488e-01 0.000000e+00
4.067710e-01 5.001953e-01 0.000000e+00
4.437238e-01 4.690078e-01 0.000000e+00
4.436949e-01 5.001953e-01 0.000000e+00
4.437852e-01 4.424905e-01 0.000000e+00
4.437238e-01 4.690078e-01 0.000000e+00
4.807000e-01 4.426084e-01 0.000000e+00
4.806345e-01 4.690717e-01 0.000000e+00
4.437238e-01 4.690078e-01 0.000000e+00
4.436949e-01 5.001953e-01 0.000000e+00
4.806345e-01 4.690717e-01 0.000000e+00
4.806040e-01 5.001953e-01 0.000000e+00
4.807000e-01 4.426084e-01 0.000000e+00
4.806345e-01 4.690717e-01 0.000000e+00
5.175980e-01 4.427354e-01 0.000000e+00
5.175288e-01 4.691405e-01 0.000000e+00
4.806345e-01 4.690717e-01 0.000000e+00
4.806040e-01 5.001953e-01 0.000000e+00
5.175288e-01 4.691405e-01 0.000000e+00
5.174971e-01 5.001953e-01 0.000000e+00
5.175980e-01 4.427354e-01 0.000000e+00
5.175288e-01 4.691405e-01 0.000000e+00
5.544779e-01 4.428713e-01 0.000000e+00
5.544053e-01 4.692142e-01 0.000000e+00
5.175288e-01 4.691405e-01 0.000000e+00
5.174971e-01 5.001953e-01 0.000000e+00
5.544053e-01 4.692142e-01 0.000000e+00
5.543727e-01 5.001953e-01 0.000000e+00
5.544779e-01 4.428713e-01 0.000000e+00
5.544053e-01 4.692142e-01 0.000000e+00
5.913381e-01 4.430161e-01 0.000000e+00
5.912625e-01 4.692928e-01 0.000000e+00
5.544053e-01 4.692142e-01 0.000000e+00
5.543727e-01 5.001953e-01 0.000000e+00
5.912625e-01 4.692928e-01 0.000000e+00
5.912295e-01 5.001953e-01 0.000000e+00
5.913381e-01 4.430161e-01 0.000000e+00
5.912625e-01 4.692928e-01 0.000000e+00
6.281769e-01 4.431696e-01 0.000000e+00
6.280990e-01 4.693761e-01 0.000000e+00
5.912625e-01 4.692928e-01 0.000000e+00
5.912295e-01 5.001953e-01 0.000000e+00
6.280990e-01 4.693761e-01 0.000000e+00
6.280660e-01 5.001953e-01 0.000000e+00
6.281769e-01 4.431696e-01 0.000000e+00
6.280990e-01 4.693761e-01 0.000000e+00
6.649927e-01 4.433317e-01 0.000000e+00
6.649131e-01 4.694642e-01 0.000000e+00
6.280990e-01 4.693761e-01 0.000000e+00
6.280660e-01 5.001953e-01 0.000000e+00
6.649131e-01 4.694642e-01 0.000000e+00
6.648807e-01 5.001953e-01 0.000000e+00
6.649927e-01 4.433317e-01 0.000000e+00
6.649131e-01 4.694642e-01 0.000000e+00
7.017837e-01 4.435024e-01 0.000000e+00
7.017032e-01 4.695569e-01 0.000000e+00
6.649131e-01 4.694642e-01 0.000000e+00
6.648807e-01 5.001953e-01 0.000000e+00
7.017032e-01 4.695569e-01 0.000000e+00
7.016724e-01 5.001953e-01 0.000000e+00
7.017837e-01 4.435024e-01 0.000000e+00
7.017032e-01 4.695569e-01 0.000000e+00
7.385481e-01 4.436815e-01 0.000000e+00
7.384678e-01 4.696544e-01 0.000000e+00
7.017032e-01 4.695569e-01 0.000000e+00
7.016724e-01 5.001953e-01 0.000000e+00
7.384678e-01 4.696544e-01 0.000000e+00
7.384394e-01 5.001953e-01 0.000000e+00
7.385481e-01 4.436815e-01 0.000000e+00
7.384678e-01 4.696544e-01 0.000000e+00
7.752840e-01 4.438688e-01 0.000000e+00
7.752051e-01 4.697565e-01 0.000000e+00
7.384678e-01 4.696544e-01 0.000000e+00
7.384394e-01 5.001953e-01 0.000000e+00
7.752051e-01 4.697565e-01 0.000000e+00
7.751804e-01 5.001953e-01 0.000000e+00
7.752840e-01 4.438688e-01 0.000000e+00
7.752051e-01 4.697565e-01 0.000000e+00
8.119893e-01 4.440644e-01 0.000000e+00
8.119135e-01 4.698632e-01 0.000000e+00
7.752051e-01 4.697565e-01 0.000000e+00
7.751804e-01 5.001953e-01 0.000000e+00
8.119135e-01 4.698632e-01 0.000000e+00
8.118940e-01 5.001953e-01 0.000000e+00
8.119893e-01 4.440644e-01 0.000000e+00
8.119135e-01 4.698632e-01 0.000000e+00
8.486619e-01 4.442681e-01 0.000000e+00
8.485910e-01 4.699745e-01 0.000000e+00
8.119135e-01 4.698632e-01 0.000000e+00
8.118940e-01 5.001953e-01 0.000000e+00
8.485910e-01 4.699745e-01 0.000000e+00
8.485787e-01 5.001953e-01 0.000000e+00
8.486619e-01 4.442681e-01 0.000000e+00
8.485910e-01 4.699745e-01 0.000000e+00
8.852993e-01 4.444798e-01 0.000000e+00
8.852360e-01 4.700905e-01 0.000000e+00
8.485910e-01 4.699745e-01 0.000000e+00
8.485787e-01 5.001953e-01 0.000000e+00
8.852360e-01 4.700905e-01 0.000000e+00
8.852333e-01 5.001953e-01 0.000000e+00
8.852993e-01 4.444798e-01 0.000000e+00
8.852360e-01 4.700905e-01 0.000000e+00
9.218990e-01 4.446993e-01 0.000000e+00
9.218464e-01 4.702111e-01 0.000000e+00
8.852360e-01 4.700905e-01 0.000000e+00
8.852333e-01 5.001953e-01 0.000000e+00
9.218464e-01 4.702111e-01 0.000000e+00
9.218566e-01 5.001953e-01 0.000000e+00
9.218990e-01 4.446993e-01 0.000000e+00
9.218464e-01 4.702111e-01 0.000000e+00
9.584583e-01 4.449267e-01 0.000000e+00
9.584206e-01 4.703365e-01 0.000000e+00
9.218464e-01 4.702111e-01 0.000000e+00
9.218566e-01 5.001953e-01 0.000000e+00
9.584206e-01 4.703365e-01 0.000000e+00
9.584476e-01 5.001953e-01 0.000000e+00
9.584583e-01 4.449267e-01 0.000000e+00
9.584206e-01 4.703365e-01 0.000000e+00
9.949742e-01 4.451618e-01 0.000000e+00
9.949565e-01 4.704668e-01 0.000000e+00
9.584206e-01 4.703365e-01 0.000000e+00
9.584476e-01 5.001953e-01 0.000000e+00
9.949565e-01 4.704668e-01 0.000000e+00
9.950055e-01 5.001953e-01 0.000000e+00
9.949742e-01 4.451618e-01 0.000000e+00
9.949565e-01 4.704668e-01 0.000000e+00
1.031443e+00 4.454046e-01 0.000000e+00
1.031452e+00 4.706021e-01 0.000000e+00
9.949565e-01 4.704668e-01 0.000000e+00
9.950055e-01 5.001953e-01 0.000000e+00
1.031452e+00 4.706021e-01 0.000000e+00
1.031530e+00 5.001953e-01 0.000000e+00
1.031443e+00 4.454046e-01 0.000000e+00
1.031452e+00 4.706021e-01 0.000000e+00
1.067861e+00 4.456551e-01 0.000000e+00
1.067906e+00 4.707426e-01 0.000000e+00
1.031452e+00 4.706021e-01 0.000000e+00
1.031530e+00 5.001953e-01 0.000000e+00
1.067906e+00 4.707426e-01 0.000000e+00
1.068021e+00 5.001953e-01 0.000000e+00
1.067861e+00 4.456551e-01 0.000000e+00
1.067906e+00 4.707426e-01 0.000000e+00
1.104224e+00 4.459132e-01 0.000000e+00
1.104315e+00 4.708887e-01 0.000000e+00
1.067906e+00 4.707426e-01 0.000000e+00
1.068021e+00 5.001953e-01 0.000000e+00
1.104315e+00 4.708887e-01 0.000000e+00
1.104478e+00 5.001953e-01 0.000000e+00
1.104224e+00 4.459132e-01 0.000000e+00
1.104315e+00 4.708887e-01 0.000000e+00
1.140527e+00 4.461791e-01 0.000000e+00
1.140679e+00 4.710409e-01 0.000000e+00
1.104315e+00 4.708887e-01 0.000000e+00
1.104478e+00 5.001953e-01 0.000000e+00
1.140679e+00 4.710409e-01 0.000000e+00
1.140904e+00 5.001953e-01 0.000000e+00
1.140527e+00 4.461791e-01 0.000000e+00
[...]
<PointData>
<DataArray type="Float32" Name="V1" format="ascii">
1.509143e+02
5.720301e+01
1.509711e+02
5.725983e+01
5.957606e+01
1.340375e+01
5.960006e+01
1.342775e+01
1.509934e+02
5.722564e+01
1.511340e+02
5.736627e+01
5.962039e+01
1.341843e+01
5.968605e+01
1.348409e+01
1.511884e+02
5.730532e+01
1.514202e+02
5.753705e+01
5.972480e+01
1.346330e+01
5.983730e+01
1.357580e+01
1.515042e+02
5.744765e+01
1.518279e+02
5.777139e+01
5.989379e+01
1.354283e+01
6.005289e+01
1.370193e+01
1.519413e+02
5.765295e+01
1.523582e+02
5.806983e+01
6.012755e+01
1.365698e+01
6.033352e+01
1.386295e+01
1.525010e+02
5.792186e+01
1.530123e+02
5.843308e+01
6.042667e+01
1.380603e+01
6.067995e+01
1.405931e+01
1.531847e+02
5.825512e+01
1.537917e+02
5.886207e+01
6.079190e+01
1.399038e+01
6.109313e+01
1.429161e+01
1.539942e+02
5.865364e+01
1.546984e+02
5.935791e+01
6.122419e+01
1.421050e+01
6.157418e+01
1.456049e+01
1.549314e+02
5.911849e+01
1.557348e+02
5.992194e+01
6.172471e+01
1.446704e+01
6.212440e+01
1.486674e+01
1.559987e+02
5.965094e+01
1.569034e+02
6.055568e+01
6.229479e+01
1.476073e+01
6.274529e+01
1.521123e+01
1.571989e+02
6.025244e+01
1.582073e+02
6.126084e+01
6.293598e+01
1.509240e+01
6.343858e+01
1.559500e+01
1.585349e+02
6.092465e+01
1.596497e+02
6.203938e+01
6.365005e+01
1.546306e+01
6.420617e+01
1.601919e+01
1.600103e+02
6.166943e+01
1.612343e+02
6.289346e+01
6.443896e+01
1.587379e+01
6.505026e+01
1.648510e+01
1.616287e+02
6.248889e+01
1.629653e+02
6.382549e+01
6.530495e+01
1.632588e+01
6.597324e+01
1.699416e+01
1.633944e+02
6.338536e+01
1.648472e+02
6.483814e+01
6.625049e+01
1.682071e+01
6.697780e+01
1.754802e+01
1.653119e+02
6.436143e+01
1.668848e+02
6.593434e+01
6.727831e+01
1.735989e+01
6.806692e+01
1.814849e+01
1.673861e+02
6.541999e+01
1.690835e+02
6.711731e+01
6.839145e+01
1.794519e+01
6.924387e+01
1.879760e+01
1.696225e+02
6.656419e+01
1.714489e+02
6.839060e+01
6.959324e+01
1.857858e+01
7.051228e+01
1.949762e+01
1.720266e+02
6.779754e+01
1.739872e+02
6.975809e+01
7.088736e+01
1.926232e+01
7.187615e+01
2.025112e+01
1.746047e+02
6.912389e+01
1.767048e+02
7.122401e+01
7.227787e+01
1.999893e+01
7.333989e+01
2.106095e+01
1.773633e+02
7.054748e+01
1.796088e+02
7.279300e+01
7.376922e+01
2.079121e+01
7.490839e+01
2.193038e+01
1.803092e+02
7.207300e+01
1.827064e+02
7.447013e+01
7.536634e+01
2.164241e+01
7.658703e+01
2.286310e+01
1.834495e+02
7.370560e+01
1.860049e+02
7.626093e+01
7.707463e+01
2.255615e+01
7.838179e+01
2.386331e+01
1.867916e+02
7.545099e+01
1.895120e+02
7.817147e+01
7.890008e+01
2.353663e+01
8.029932e+01
2.493588e+01
1.903426e+02
7.731549e+01
1.932355e+02
8.020837e+01
8.084935e+01
2.458872e+01
8.234706e+01
2.608643e+01
1.941098e+02
7.930615e+01
1.971825e+02
8.237890e+01
8.292977e+01
2.571800e+01
8.453336e+01
2.732159e+01
1.980999e+02
8.143084e+01
2.013601e+02
8.469102e+01
8.514960e+01
2.693113e+01
8.686760e+01
2.864914e+01
2.023189e+02
8.369837e+01
2.057740e+02
8.715351e+01
8.751804e+01
2.823594e+01
8.936051e+01
3.007842e+01
2.067711e+02
8.611875e+01
2.104284e+02
8.977602e+01
9.004550e+01
2.964185e+01
9.202433e+01
3.162068e+01
2.114592e+02
8.870334e+01
2.153250e+02
9.256921e+01
9.274378e+01
3.116024e+01
9.487322e+01
3.328968e+01
2.163822e+02
9.146519e+01
2.204619e+02
9.554493e+01
9.562638e+01
3.280510e+01
9.792370e+01
3.510242e+01
2.215349e+02
9.441945e+01
2.258317e+02
9.871631e+01
9.870887e+01
3.459376e+01
1.011952e+02
3.708014e+01
2.269054e+02
9.758377e+01
2.314196e+02
1.020980e+02
1.020093e+02
3.654792e+01
1.047111e+02
3.924968e+01
2.324729e+02
1.009790e+02
2.372001e+02
1.057062e+02
1.055488e+02
3.869518e+01
1.084991e+02
4.164545e+01
2.382041e+02
1.046300e+02
2.431332e+02
1.095591e+02
1.093523e+02
4.107106e+01
1.125933e+02
4.431204e+01
2.440489e+02
1.085662e+02
2.491592e+02
1.136764e+02
1.134490e+02
4.372198e+01
1.170352e+02
4.730813e+01
2.499347e+02
1.128227e+02
2.551915e+02
1.180794e+02
1.178730e+02
4.670969e+01
1.218755e+02
5.071224e+01
2.557590e+02
1.174410e+02
2.611084e+02
1.227904e+02
1.226625e+02
5.011835e+01
1.271760e+02
5.463181e+01
2.613805e+02
1.224696e+02
2.667430e+02
1.278322e+02
1.278564e+02
5.406653e+01
1.330087e+02
5.921879e+01
2.666054e+02
1.279677e+02
2.718716e+02
1.332339e+02
1.334807e+02
5.873025e+01
1.394510e+02
6.470057e+01
2.711630e+02
1.340210e+02
2.762033e+02
1.390613e+02
1.395083e+02
6.439505e+01
1.465701e+02
7.145685e+01
2.746343e+02
1.408217e+02
2.793843e+02
1.455718e+02
1.457470e+02
7.160700e+01
1.544016e+02
8.026152e+01
2.761663e+02
1.490502e+02
2.810653e+02
1.539492e+02
1.515313e+02
8.188461e+01
1.629273e+02
9.328067e+01
2.752314e+02
1.605724e+02
2.813152e+02
1.666562e+02
1.576132e+02
1.007049e+02
1.702957e+02
1.133873e+02
2.772252e+02
1.705356e+02
2.829051e+02
1.762155e+02
1.678277e+02
1.131001e+02
1.759089e+02
1.211813e+02
2.817475e+02
1.772816e+02
2.885815e+02
1.841156e+02
1.756763e+02
1.212536e+02
1.832142e+02
1.287916e+02
2.886507e+02
1.839347e+02
2.962904e+02
1.915744e+02
1.835791e+02
1.285086e+02
1.906553e+02
1.355849e+02
2.970996e+02
1.906565e+02
3.052614e+02
1.988182e+02
1.914151e+02
1.350537e+02
1.980602e+02
1.416987e+02
3.065271e+02
1.974201e+02
3.149586e+02
2.058515e+02
1.990822e+02
1.409970e+02
2.053112e+02
1.472261e+02
3.165095e+02
2.041419e+02
3.249944e+02
2.126267e+02
2.065061e+02
1.464119e+02
2.123267e+02
1.522325e+02
3.267137e+02
2.107288e+02
3.350702e+02
2.190854e+02
2.136229e+02
1.513530e+02
2.190367e+02
1.567667e+02
3.368715e+02
2.170946e+02
3.449488e+02
2.251719e+02
2.203763e+02
1.558609e+02
2.253811e+02
1.608657e+02
3.467647e+02
2.231640e+02
3.544389e+02
2.308382e+02
2.267177e+02
1.599649e+02
2.313093e+02
1.645565e+02
3.562158e+02
2.288738e+02
3.633858e+02
2.360437e+02
2.326056e+02
1.636856e+02
2.367789e+02
1.678589e+02
3.650802e+02
2.341717e+02
3.716640e+02
2.407555e+02
2.380055e+02
1.670374e+02
2.417550e+02
1.707869e+02
3.732409e+02
2.390150e+02
3.791729e+02
2.449471e+02
2.428888e+02
1.700299e+02
2.462094e+02
1.733505e+02
3.806039e+02
2.433692e+02
3.858319e+02
2.485972e+02
2.472323e+02
1.726694e+02
2.501193e+02
1.755564e+02
3.870943e+02
2.472067e+02
3.915771e+02
2.516896e+02
2.510174e+02
1.749601e+02
2.534667e+02
1.774094e+02
3.926531e+02
2.505056e+02
3.963592e+02
2.542116e+02
2.542291e+02
1.769043e+02
2.562375e+02
1.789127e+02
3.972350e+02
2.532487e+02
4.001401e+02
2.561538e+02
2.568560e+02
1.785037e+02
2.584208e+02
1.800684e+02
4.008054e+02
2.554228e+02
4.028922e+02
2.575096e+02
2.588895e+02
1.797589e+02
2.600086e+02
1.808780e+02
4.033396e+02
2.570183e+02
4.045963e+02
2.582749e+02
2.603232e+02
1.806704e+02
2.609953e+02
1.813425e+02
4.048211e+02
2.580280e+02
4.052408e+02
2.584477e+02
2.611532e+02
1.812383e+02
2.613773e+02
1.814624e+02
</DataArray>
<DataArray type="Float32" Name="V2" format="ascii">
4.418007e-01
4.686362e-01
4.425941e-01
4.694154e-01
4.686362e-01
5.001953e-01
4.694154e-01
5.009624e-01
4.425941e-01
4.694154e-01
4.449636e-01
4.717529e-01
4.694154e-01
5.009624e-01
4.717529e-01
5.032624e-01
4.449636e-01
4.717529e-01
4.489089e-01
4.756448e-01
4.717529e-01
5.032624e-01
4.756448e-01
5.070920e-01
4.489089e-01
4.756448e-01
4.544243e-01
4.810857e-01
4.756448e-01
5.070920e-01
4.810857e-01
5.124457e-01
4.544243e-01
4.810857e-01
4.615018e-01
4.880676e-01
4.810857e-01
5.124457e-01
4.880676e-01
5.193159e-01
4.615018e-01
4.880676e-01
4.701313e-01
4.965804e-01
4.880676e-01
5.193159e-01
4.965804e-01
5.276924e-01
4.701313e-01
4.965804e-01
4.803001e-01
5.066117e-01
4.965804e-01
5.276924e-01
5.066117e-01
5.375632e-01
4.803001e-01
5.066117e-01
4.919934e-01
5.181471e-01
5.066117e-01
5.375632e-01
5.181471e-01
5.489139e-01
4.919934e-01
5.181471e-01
5.051944e-01
5.311698e-01
5.181471e-01
5.489139e-01
5.311698e-01
5.617281e-01
5.051944e-01
5.311698e-01
5.198838e-01
5.456608e-01
5.311698e-01
5.617281e-01
5.456608e-01
5.759871e-01
5.198838e-01
5.456608e-01
5.360402e-01
5.615989e-01
5.456608e-01
5.759871e-01
5.615989e-01
5.916702e-01
5.360402e-01
5.615989e-01
5.536399e-01
5.789610e-01
5.615989e-01
5.916702e-01
5.789610e-01
6.087544e-01
5.536399e-01
5.789610e-01
5.726572e-01
5.977216e-01
5.789610e-01
6.087544e-01
5.977216e-01
6.272148e-01
5.726572e-01
5.977216e-01
5.930641e-01
6.178532e-01
5.977216e-01
6.272148e-01
6.178532e-01
6.470243e-01
5.930641e-01
6.178532e-01
6.148308e-01
6.393262e-01
6.178532e-01
6.470243e-01
6.393262e-01
6.681538e-01
6.148308e-01
6.393262e-01
6.379251e-01
6.621091e-01
6.393262e-01
6.681538e-01
6.621091e-01
6.905722e-01
6.379251e-01
6.621091e-01
6.623127e-01
6.861681e-01
6.621091e-01
6.905722e-01
6.861681e-01
7.142464e-01
6.623127e-01
6.861681e-01
6.879576e-01
7.114676e-01
6.861681e-01
7.142464e-01
7.114676e-01
7.391413e-01
6.879576e-01
7.114676e-01
7.148215e-01
7.379700e-01
7.114676e-01
7.391413e-01
7.379700e-01
7.652201e-01
7.148215e-01
7.379700e-01
7.428642e-01
7.656358e-01
7.379700e-01
7.652201e-01
7.656358e-01
7.924439e-01
7.428642e-01
7.656358e-01
7.720437e-01
7.944236e-01
7.656358e-01
7.924439e-01
7.944236e-01
8.207721e-01
7.720437e-01
7.944236e-01
8.023159e-01
8.242902e-01
7.944236e-01
8.207721e-01
8.242902e-01
8.501622e-01
8.023159e-01
8.242902e-01
8.336351e-01
8.551907e-01
8.242902e-01
8.501622e-01
8.551907e-01
8.805702e-01
8.336351e-01
8.551907e-01
8.659533e-01
8.870782e-01
8.551907e-01
8.805702e-01
8.870782e-01
9.119505e-01
8.659533e-01
8.870782e-01
8.992210e-01
9.199043e-01
8.870782e-01
9.119505e-01
9.199043e-01
9.442556e-01
8.992210e-01
9.199043e-01
9.333869e-01
9.536191e-01
9.199043e-01
9.442556e-01
9.536191e-01
9.774369e-01
9.333869e-01
9.536191e-01
9.683978e-01
9.881710e-01
9.536191e-01
9.774369e-01
9.881710e-01
1.011444e+00
9.683978e-01
9.881710e-01
1.004199e+00
1.023507e+00
9.881710e-01
1.011444e+00
1.023507e+00
1.046226e+00
1.004199e+00
1.023507e+00
1.040732e+00
1.059572e+00
1.023507e+00
1.046226e+00
1.059572e+00
1.081731e+00
1.040732e+00
1.059572e+00
1.077941e+00
1.096311e+00
1.059572e+00
1.081731e+00
1.096311e+00
1.117905e+00
1.077941e+00
1.096311e+00
1.115763e+00
1.133667e+00
1.096311e+00
1.117905e+00
1.133667e+00
1.154695e+00
1.115763e+00
1.133667e+00
1.154136e+00
1.171581e+00
1.133667e+00
1.154695e+00
1.171581e+00
1.192046e+00
1.154136e+00
1.171581e+00
1.192994e+00
1.209995e+00
1.171581e+00
1.192046e+00
1.209995e+00
1.229904e+00
1.192994e+00
1.209995e+00
1.232272e+00
1.248848e+00
1.209995e+00
1.229904e+00
1.248848e+00
1.268217e+00
1.232272e+00
1.248848e+00
1.271897e+00
1.288080e+00
1.248848e+00
1.268217e+00
1.288080e+00
1.306932e+00
1.271897e+00
1.288080e+00
1.311796e+00
1.327629e+00
1.288080e+00
1.306932e+00
1.327629e+00
1.346000e+00
1.311796e+00
1.327629e+00
1.351891e+00
1.367433e+00
1.327629e+00
1.346000e+00
1.367433e+00
1.385373e+00
1.351891e+00
1.367433e+00
1.392098e+00
1.407430e+00
1.367433e+00
1.385373e+00
1.407430e+00
1.425011e+00
1.392098e+00
1.407430e+00
1.432328e+00
1.447554e+00
1.407430e+00
1.425011e+00
1.447554e+00
1.464880e+00
1.432328e+00
1.447554e+00
1.472478e+00
1.487737e+00
1.447554e+00
1.464880e+00
1.487737e+00
1.504959e+00
1.472478e+00
1.487737e+00
1.512429e+00
1.527897e+00
1.487737e+00
1.504959e+00
1.527897e+00
1.545240e+00
1.512429e+00
1.527897e+00
1.552011e+00
1.567907e+00
1.527897e+00
1.545240e+00
1.567907e+00
1.585723e+00
1.552011e+00
1.567907e+00
1.590955e+00
1.607479e+00
1.567907e+00
1.585723e+00
1.607479e+00
1.626235e+00
1.590955e+00
1.607479e+00
1.628706e+00
1.645624e+00
1.607479e+00
1.626235e+00
1.645624e+00
1.664599e+00
1.628706e+00
1.645624e+00
1.664040e+00
1.681193e+00
1.645624e+00
1.664599e+00
1.681193e+00
1.700454e+00
1.664040e+00
1.681193e+00
1.696900e+00
1.714532e+00
1.681193e+00
1.700454e+00
1.714532e+00
1.734284e+00
1.696900e+00
1.714532e+00
1.727373e+00
1.745589e+00
1.714532e+00
1.734284e+00
1.745589e+00
1.765924e+00
1.727373e+00
1.745589e+00
1.755540e+00
1.774362e+00
1.745589e+00
1.765924e+00
1.774362e+00
1.795310e+00
1.755540e+00
1.774362e+00
1.781477e+00
1.800882e+00
1.774362e+00
1.795310e+00
1.800882e+00
1.822435e+00
1.781477e+00
1.800882e+00
1.805257e+00
1.825200e+00
1.800882e+00
1.822435e+00
1.825200e+00
1.847322e+00
1.805257e+00
1.825200e+00
1.826955e+00
1.847379e+00
1.825200e+00
1.847322e+00
1.847379e+00
1.870020e+00
1.826955e+00
1.847379e+00
1.846640e+00
1.867484e+00
1.847379e+00
1.870020e+00
1.867484e+00
1.890588e+00
1.846640e+00
1.867484e+00
1.864380e+00
1.885586e+00
1.867484e+00
1.890588e+00
1.885586e+00
1.909094e+00
1.864380e+00
1.885586e+00
1.880236e+00
1.901749e+00
1.885586e+00
1.909094e+00
1.901749e+00
1.925606e+00
1.880236e+00
1.901749e+00
1.894267e+00
1.916037e+00
1.901749e+00
1.925606e+00
1.916037e+00
1.940190e+00
1.894267e+00
1.916037e+00
1.906525e+00
1.928507e+00
1.916037e+00
1.940190e+00
1.928507e+00
1.952906e+00
1.906525e+00
1.928507e+00
1.917055e+00
1.939210e+00
1.928507e+00
1.952906e+00
1.939210e+00
1.963812e+00
1.917055e+00
1.939210e+00
1.925898e+00
1.948190e+00
1.939210e+00
1.963812e+00
1.948190e+00
1.972956e+00
1.925898e+00
1.948190e+00
1.933087e+00
1.955486e+00
1.948190e+00
1.972956e+00
1.955486e+00
1.980380e+00
1.933087e+00
1.955486e+00
1.938650e+00
1.961128e+00
1.955486e+00
1.980380e+00
1.961128e+00
1.986118e+00
1.938650e+00
1.961128e+00
1.942608e+00
1.965141e+00
1.961128e+00
1.986118e+00
1.965141e+00
1.990198e+00
1.942608e+00
1.965141e+00
1.944976e+00
1.967542e+00
1.965141e+00
1.990198e+00
1.967542e+00
1.992638e+00
1.944976e+00
1.967542e+00
1.945765e+00
1.968341e+00
1.967542e+00
1.992638e+00
1.968341e+00
1.993451e+00
</DataArray>
<DataArray type="Float32" Name="V3" format="ascii">
0.000000e+00
0.000000e+00
2.598488e-02
2.531055e-02
0.000000e+00
0.000000e+00
2.531055e-02
2.452114e-02
2.598488e-02
2.531055e-02
5.190587e-02
5.055789e-02
2.531055e-02
2.452114e-02
5.055789e-02
4.897987e-02
5.190587e-02
5.055789e-02
7.769876e-02
7.567869e-02
5.055789e-02
4.897987e-02
7.567869e-02
7.331386e-02
7.769876e-02
7.567869e-02
1.032997e-01
1.006099e-01
7.567869e-02
7.331386e-02
1.006099e-01
9.746092e-02
1.032997e-01
1.006099e-01
1.286451e-01
1.252885e-01
1.006099e-01
9.746092e-02
1.252885e-01
1.213591e-01
1.286451e-01
1.252885e-01
1.536716e-01
1.496521e-01
1.252885e-01
1.213591e-01
1.496521e-01
1.449466e-01
1.536716e-01
1.496521e-01
1.783162e-01
1.736385e-01
1.496521e-01
1.449466e-01
1.736385e-01
1.681621e-01
1.783162e-01
1.736385e-01
2.025165e-01
1.971858e-01
1.736385e-01
1.681621e-01
1.971858e-01
1.909448e-01
2.025165e-01
1.971858e-01
2.262103e-01
2.202327e-01
1.971858e-01
1.909448e-01
2.202327e-01
2.132342e-01
2.262103e-01
2.202327e-01
2.493364e-01
2.427186e-01
2.202327e-01
2.132342e-01
2.427186e-01
2.349705e-01
2.493364e-01
2.427186e-01
2.718339e-01
2.645835e-01
2.427186e-01
2.349705e-01
2.645835e-01
2.560945e-01
2.718339e-01
2.645835e-01
2.936427e-01
2.857680e-01
2.645835e-01
2.560945e-01
2.857680e-01
2.765476e-01
2.936427e-01
2.857680e-01
3.147038e-01
3.062135e-01
2.857680e-01
2.765476e-01
3.062135e-01
2.962722e-01
3.147038e-01
3.062135e-01
3.349586e-01
3.258625e-01
3.062135e-01
2.962722e-01
3.258625e-01
3.152113e-01
3.349586e-01
3.258625e-01
3.543499e-01
3.446581e-01
3.258625e-01
3.152113e-01
3.446581e-01
3.333091e-01
3.543499e-01
3.446581e-01
3.728211e-01
3.625447e-01
3.446581e-01
3.333091e-01
3.625447e-01
3.505106e-01
3.728211e-01
3.625447e-01
3.903170e-01
3.794676e-01
3.625447e-01
3.505106e-01
3.794676e-01
3.667619e-01
3.903170e-01
3.794676e-01
4.067833e-01
3.953731e-01
3.794676e-01
3.667619e-01
3.953731e-01
3.820102e-01
4.067833e-01
3.953731e-01
4.221670e-01
4.102091e-01
3.953731e-01
3.820102e-01
4.102091e-01
3.962040e-01
4.221670e-01
4.102091e-01
4.364165e-01
4.239243e-01
4.102091e-01
3.962040e-01
4.239243e-01
4.092930e-01
4.364165e-01
4.239243e-01
4.494812e-01
4.364691e-01
4.239243e-01
4.092930e-01
4.364691e-01
4.212283e-01
4.494812e-01
4.364691e-01
4.613123e-01
4.477951e-01
4.364691e-01
4.212283e-01
4.477951e-01
4.319623e-01
4.613123e-01
4.477951e-01
4.718620e-01
4.578555e-01
4.477951e-01
4.319623e-01
4.578555e-01
4.414490e-01
4.718620e-01
4.578555e-01
4.810842e-01
4.666049e-01
4.578555e-01
4.414490e-01
4.666049e-01
4.496440e-01
4.810842e-01
4.666049e-01
4.889344e-01
4.739994e-01
4.666049e-01
4.496440e-01
4.739994e-01
4.565046e-01
4.889344e-01
4.739994e-01
4.953696e-01
4.799969e-01
4.739994e-01
4.565046e-01
4.799969e-01
4.619896e-01
4.953696e-01
4.799969e-01
5.003483e-01
4.845571e-01
4.799969e-01
4.619896e-01
4.845571e-01
4.660600e-01
5.003483e-01
4.845571e-01
5.038307e-01
4.876411e-01
4.845571e-01
4.660600e-01
4.876411e-01
4.686784e-01
5.038307e-01
4.876411e-01
5.057786e-01
4.892120e-01
4.876411e-01
4.686784e-01
4.892120e-01
4.698096e-01
5.057786e-01
4.892120e-01
5.061556e-01
4.892348e-01
4.892120e-01
4.698096e-01
4.892348e-01
4.694207e-01
5.061556e-01
4.892348e-01
5.049267e-01
4.876764e-01
4.892348e-01
4.694207e-01
4.876764e-01
4.674809e-01
5.049267e-01
4.876764e-01
5.020586e-01
4.845054e-01
4.876764e-01
4.674809e-01
4.845054e-01
4.639619e-01
5.020586e-01
4.845054e-01
4.975195e-01
4.796925e-01
4.845054e-01
4.639619e-01
4.796925e-01
4.588380e-01
4.975195e-01
4.796925e-01
4.912792e-01
4.732104e-01
4.796925e-01
4.588380e-01
4.732104e-01
4.520866e-01
4.912792e-01
4.732104e-01
4.833087e-01
4.650337e-01
4.732104e-01
4.520866e-01
4.650337e-01
4.436877e-01
4.833087e-01
4.650337e-01
4.735805e-01
4.551388e-01
4.650337e-01
4.436877e-01
4.551388e-01
4.336251e-01
4.735805e-01
4.551388e-01
4.620681e-01
4.435043e-01
4.551388e-01
4.336251e-01
4.435043e-01
4.218861e-01
4.620681e-01
4.435043e-01
4.487461e-01
4.301100e-01
4.435043e-01
4.218861e-01
4.301100e-01
4.084622e-01
4.487461e-01
4.301100e-01
4.335907e-01
4.149378e-01
4.301100e-01
4.084622e-01
4.149378e-01
3.933503e-01
4.335907e-01
4.149378e-01
4.165798e-01
3.979718e-01
4.149378e-01
3.933503e-01
3.979718e-01
3.765533e-01
4.165798e-01
3.979718e-01
3.976983e-01
3.792020e-01
3.979718e-01
3.765533e-01
3.792020e-01
3.580812e-01
3.976983e-01
3.792020e-01
3.769570e-01
3.586411e-01
3.792020e-01
3.580812e-01
3.586411e-01
3.379421e-01
3.769570e-01
3.586411e-01
3.544652e-01
3.363776e-01
3.586411e-01
3.379421e-01
3.363776e-01
3.160455e-01
3.544652e-01
3.363776e-01
3.310870e-01
3.133210e-01
3.363776e-01
3.160455e-01
3.133210e-01
2.930481e-01
3.310870e-01
3.133210e-01
3.088001e-01
2.916988e-01
3.133210e-01
2.930481e-01
2.916988e-01
2.724304e-01
3.088001e-01
2.916988e-01
2.877149e-01
2.714059e-01
2.916988e-01
2.724304e-01
2.714059e-01
2.532151e-01
2.877149e-01
2.714059e-01
2.676621e-01
2.522528e-01
2.714059e-01
2.532151e-01
2.522528e-01
2.351800e-01
2.676621e-01
2.522528e-01
2.484679e-01
2.340352e-01
2.522528e-01
2.351800e-01
2.340352e-01
2.181121e-01
2.484679e-01
2.340352e-01
2.299807e-01
2.165739e-01
2.340352e-01
2.181121e-01
2.165739e-01
2.018216e-01
2.299807e-01
2.165739e-01
2.120700e-01
1.997153e-01
2.165739e-01
2.018216e-01
1.997153e-01
1.861428e-01
2.120700e-01
1.997153e-01
1.946254e-01
1.833311e-01
1.997153e-01
1.861428e-01
1.833311e-01
1.709353e-01
1.946254e-01
1.833311e-01
1.775546e-01
1.673153e-01
1.833311e-01
1.709353e-01
1.673153e-01
1.560831e-01
1.775546e-01
1.673153e-01
1.607810e-01
1.515817e-01
1.673153e-01
1.560831e-01
1.515817e-01
1.414927e-01
1.607810e-01
1.515817e-01
1.442415e-01
1.360610e-01
1.515817e-01
1.414927e-01
1.360610e-01
1.270897e-01
1.442415e-01
1.360610e-01
1.278848e-01
1.206984e-01
1.360610e-01
1.270897e-01
1.206984e-01
1.128166e-01
1.278848e-01
1.206984e-01
1.116692e-01
1.054509e-01
1.206984e-01
1.128166e-01
1.054509e-01
9.862988e-02
1.116692e-01
1.054509e-01
9.556118e-02
9.028546e-02
1.054509e-01
9.862988e-02
9.028546e-02
8.449738e-02
9.556118e-02
9.028546e-02
7.953401e-02
7.517722e-02
9.028546e-02
8.449738e-02
7.517722e-02
7.039638e-02
7.953401e-02
7.517722e-02
6.356647e-02
6.010767e-02
7.517722e-02
7.039638e-02
6.010767e-02
5.631152e-02
6.356647e-02
6.010767e-02
4.764167e-02
4.506340e-02
6.010767e-02
5.631152e-02
4.506340e-02
4.223323e-02
4.764167e-02
4.506340e-02
3.174611e-02
3.003491e-02
4.506340e-02
4.223323e-02
3.003491e-02
2.815628e-02
3.174611e-02
3.003491e-02
1.586871e-02
1.501542e-02
3.003491e-02
2.815628e-02
1.501542e-02
1.407858e-02
1.586871e-02
1.501542e-02
0.000000e+00
0.000000e+00
1.501542e-02
1.407858e-02
0.000000e+00
0.000000e+00
</DataArray>
<DataArray type="Float32" Name="V4" format="ascii">
8.500000e-01
9.250000e-01
8.500000e-01
9.250000e-01
9.250000e-01
1.000000e+00