<?xml version="1.0"?>
<VTKFile type="UnstructuredGrid" version="0.1" byte_order="LittleEndian" compressor="vtkZLibDataCompressor">
<UnstructuredGrid>
<Piece NumberOfPoints="504" NumberOfCells="126">
<Points>
<DataArray type="Float32" NumberOfComponents="3" format="ascii">
0.000000e+00 4.224375e-01 0.000000e+00
0.000000e+00 4.465957e-01 0.000000e+00
3.900834e-02 4.224457e-01 0.000000e+00
3.900505e-02 4.465975e-01 0.000000e+00
0.000000e+00 4.465957e-01 0.000000e+00
0.000000e+00 4.750000e-01 0.000000e+00
3.900505e-02 4.465975e-01 0.000000e+00
3.900396e-02 4.750000e-01 0.000000e+00
3.900834e-02 4.224457e-01 0.000000e+00
3.900505e-02 4.465975e-01 0.000000e+00
7.801565e-02 4.224588e-01 0.000000e+00
7.800900e-02 4.466046e-01 0.000000e+00
3.900505e-02 4.465975e-01 0.000000e+00
3.900396e-02 4.750000e-01 0.000000e+00
7.800900e-02 4.466046e-01 0.000000e+00
7.800672e-02 4.750000e-01 0.000000e+00
7.801565e-02 4.224588e-01 0.000000e+00
7.800900e-02 4.466046e-01 0.000000e+00
1.170204e-01 4.224805e-01 0.000000e+00
1.170105e-01 4.466163e-01 0.000000e+00
7.800900e-02 4.466046e-01 0.000000e+00
7.800672e-02 4.750000e-01 0.000000e+00
1.170105e-01 4.466163e-01 0.000000e+00
1.170070e-01 4.750000e-01 0.000000e+00
1.170204e-01 4.224805e-01 0.000000e+00
1.170105e-01 4.466163e-01 0.000000e+00
1.560215e-01 4.225108e-01 0.000000e+00
1.560082e-01 4.466327e-01 0.000000e+00
1.170105e-01 4.466163e-01 0.000000e+00
1.170070e-01 4.750000e-01 0.000000e+00
1.560082e-01 4.466327e-01 0.000000e+00
1.560037e-01 4.750000e-01 0.000000e+00
1.560215e-01 4.225108e-01 0.000000e+00
1.560082e-01 4.466327e-01 0.000000e+00
1.950175e-01 4.225498e-01 0.000000e+00
1.950010e-01 4.466538e-01 0.000000e+00
1.560082e-01 4.466327e-01 0.000000e+00
1.560037e-01 4.750000e-01 0.000000e+00
1.950010e-01 4.466538e-01 0.000000e+00
1.949954e-01 4.750000e-01 0.000000e+00
1.950175e-01 4.225498e-01 0.000000e+00
1.950010e-01 4.466538e-01 0.000000e+00
2.340073e-01 4.225974e-01 0.000000e+00
2.339876e-01 4.466796e-01 0.000000e+00
1.950010e-01 4.466538e-01 0.000000e+00
1.949954e-01 4.750000e-01 0.000000e+00
2.339876e-01 4.466796e-01 0.000000e+00
2.339810e-01 4.750000e-01 0.000000e+00
2.340073e-01 4.225974e-01 0.000000e+00
2.339876e-01 4.466796e-01 0.000000e+00
2.729895e-01 4.226536e-01 0.000000e+00
2.729667e-01 4.467100e-01 0.000000e+00
2.339876e-01 4.466796e-01 0.000000e+00
2.339810e-01 4.750000e-01 0.000000e+00
2.729667e-01 4.467100e-01 0.000000e+00
2.729591e-01 4.750000e-01 0.000000e+00
2.729895e-01 4.226536e-01 0.000000e+00
2.729667e-01 4.467100e-01 0.000000e+00
3.119629e-01 4.227183e-01 0.000000e+00
3.119371e-01 4.467450e-01 0.000000e+00
2.729667e-01 4.467100e-01 0.000000e+00
2.729591e-01 4.750000e-01 0.000000e+00
3.119371e-01 4.467450e-01 0.000000e+00
3.119285e-01 4.750000e-01 0.000000e+00
3.119629e-01 4.227183e-01 0.000000e+00
3.119371e-01 4.467450e-01 0.000000e+00
3.509261e-01 4.227914e-01 0.000000e+00
3.508973e-01 4.467846e-01 0.000000e+00
3.119371e-01 4.467450e-01 0.000000e+00
3.119285e-01 4.750000e-01 0.000000e+00
3.508973e-01 4.467846e-01 0.000000e+00
3.508879e-01 4.750000e-01 0.000000e+00
3.509261e-01 4.227914e-01 0.000000e+00
3.508973e-01 4.467846e-01 0.000000e+00
3.898778e-01 4.228731e-01 0.000000e+00
3.898461e-01 4.468288e-01 0.000000e+00
3.508973e-01 4.467846e-01 0.000000e+00
3.508879e-01 4.750000e-01 0.000000e+00
3.898461e-01 4.468288e-01 0.000000e+00
3.898360e-01 4.750000e-01 0.000000e+00
3.898778e-01 4.228731e-01 0.000000e+00
3.898461e-01 4.468288e-01 0.000000e+00
4.288166e-01 4.229630e-01 0.000000e+00
4.287822e-01 4.468775e-01 0.000000e+00
3.898461e-01 4.468288e-01 0.000000e+00
3.898360e-01 4.750000e-01 0.000000e+00
4.287822e-01 4.468775e-01 0.000000e+00
4.287715e-01 4.750000e-01 0.000000e+00
4.288166e-01 4.229630e-01 0.000000e+00
4.287822e-01 4.468775e-01 0.000000e+00
4.677411e-01 4.230614e-01 0.000000e+00
4.677041e-01 4.469307e-01 0.000000e+00
4.287822e-01 4.468775e-01 0.000000e+00
4.287715e-01 4.750000e-01 0.000000e+00
4.677041e-01 4.469307e-01 0.000000e+00
4.676929e-01 4.750000e-01 0.000000e+00
4.677411e-01 4.230614e-01 0.000000e+00
4.677041e-01 4.469307e-01 0.000000e+00
5.066499e-01 4.231679e-01 0.000000e+00
5.066105e-01 4.469884e-01 0.000000e+00
4.677041e-01 4.469307e-01 0.000000e+00
4.676929e-01 4.750000e-01 0.000000e+00
5.066105e-01 4.469884e-01 0.000000e+00
5.065989e-01 4.750000e-01 0.000000e+00
5.066499e-01 4.231679e-01 0.000000e+00
5.066105e-01 4.469884e-01 0.000000e+00
5.455414e-01 4.232826e-01 0.000000e+00
5.454999e-01 4.470505e-01 0.000000e+00
5.066105e-01 4.469884e-01 0.000000e+00
5.065989e-01 4.750000e-01 0.000000e+00
5.454999e-01 4.470505e-01 0.000000e+00
5.454881e-01 4.750000e-01 0.000000e+00
5.455414e-01 4.232826e-01 0.000000e+00
5.454999e-01 4.470505e-01 0.000000e+00
5.844142e-01 4.234054e-01 0.000000e+00
5.843707e-01 4.471171e-01 0.000000e+00
5.454999e-01 4.470505e-01 0.000000e+00
5.454881e-01 4.750000e-01 0.000000e+00
5.843707e-01 4.471171e-01 0.000000e+00
5.843590e-01 4.750000e-01 0.000000e+00
5.844142e-01 4.234054e-01 0.000000e+00
5.843707e-01 4.471171e-01 0.000000e+00
6.232667e-01 4.235362e-01 0.000000e+00
6.232216e-01 4.471879e-01 0.000000e+00
5.843707e-01 4.471171e-01 0.000000e+00
5.843590e-01 4.750000e-01 0.000000e+00
6.232216e-01 4.471879e-01 0.000000e+00
6.232102e-01 4.750000e-01 0.000000e+00
6.232667e-01 4.235362e-01 0.000000e+00
6.232216e-01 4.471879e-01 0.000000e+00
6.620973e-01 4.236750e-01 0.000000e+00
6.620509e-01 4.472631e-01 0.000000e+00
6.232216e-01 4.471879e-01 0.000000e+00
6.232102e-01 4.750000e-01 0.000000e+00
6.620509e-01 4.472631e-01 0.000000e+00
6.620401e-01 4.750000e-01 0.000000e+00
6.620973e-01 4.236750e-01 0.000000e+00
6.620509e-01 4.472631e-01 0.000000e+00
7.009043e-01 4.238215e-01 0.000000e+00
7.008570e-01 4.473426e-01 0.000000e+00
6.620509e-01 4.472631e-01 0.000000e+00
6.620401e-01 4.750000e-01 0.000000e+00
7.008570e-01 4.473426e-01 0.000000e+00
7.008473e-01 4.750000e-01 0.000000e+00
7.009043e-01 4.238215e-01 0.000000e+00
7.008570e-01 4.473426e-01 0.000000e+00
7.396859e-01 4.239758e-01 0.000000e+00
7.396382e-01 4.474263e-01 0.000000e+00
7.008570e-01 4.473426e-01 0.000000e+00
7.008473e-01 4.750000e-01 0.000000e+00
7.396382e-01 4.474263e-01 0.000000e+00
7.396301e-01 4.750000e-01 0.000000e+00
7.396859e-01 4.239758e-01 0.000000e+00
7.396382e-01 4.474263e-01 0.000000e+00
7.784404e-01 4.241377e-01 0.000000e+00
7.783930e-01 4.475141e-01 0.000000e+00
7.396382e-01 4.474263e-01 0.000000e+00
7.396301e-01 4.750000e-01 0.000000e+00
7.783930e-01 4.475141e-01 0.000000e+00
7.783869e-01 4.750000e-01 0.000000e+00
7.784404e-01 4.241377e-01 0.000000e+00
7.783930e-01 4.475141e-01 0.000000e+00
8.171659e-01 4.243071e-01 0.000000e+00
8.171194e-01 4.476061e-01 0.000000e+00
7.783930e-01 4.475141e-01 0.000000e+00
7.783869e-01 4.750000e-01 0.000000e+00
8.171194e-01 4.476061e-01 0.000000e+00
8.171163e-01 4.750000e-01 0.000000e+00
8.171659e-01 4.243071e-01 0.000000e+00
8.171194e-01 4.476061e-01 0.000000e+00
8.558603e-01 4.244840e-01 0.000000e+00
8.558158e-01 4.477022e-01 0.000000e+00
8.171194e-01 4.476061e-01 0.000000e+00
8.171163e-01 4.750000e-01 0.000000e+00
8.558158e-01 4.477022e-01 0.000000e+00
8.558165e-01 4.750000e-01 0.000000e+00
8.558603e-01 4.244840e-01 0.000000e+00
8.558158e-01 4.477022e-01 0.000000e+00
8.945216e-01 4.246681e-01 0.000000e+00
8.944803e-01 4.478024e-01 0.000000e+00
8.558158e-01 4.477022e-01 0.000000e+00
8.558165e-01 4.750000e-01 0.000000e+00
8.944803e-01 4.478024e-01 0.000000e+00
8.944859e-01 4.750000e-01 0.000000e+00
8.945216e-01 4.246681e-01 0.000000e+00
8.944803e-01 4.478024e-01 0.000000e+00
9.331475e-01 4.248594e-01 0.000000e+00
9.331109e-01 4.479067e-01 0.000000e+00
8.944803e-01 4.478024e-01 0.000000e+00
8.944859e-01 4.750000e-01 0.000000e+00
9.331109e-01 4.479067e-01 0.000000e+00
9.331230e-01 4.750000e-01 0.000000e+00
9.331475e-01 4.248594e-01 0.000000e+00
9.331109e-01 4.479067e-01 0.000000e+00
9.717358e-01 4.250579e-01 0.000000e+00
9.717057e-01 4.480149e-01 0.000000e+00
9.331109e-01 4.479067e-01 0.000000e+00
9.331230e-01 4.750000e-01 0.000000e+00
9.717057e-01 4.480149e-01 0.000000e+00
9.717261e-01 4.750000e-01 0.000000e+00
9.717358e-01 4.250579e-01 0.000000e+00
9.717057e-01 4.480149e-01 0.000000e+00
1.010284e+00 4.252633e-01 0.000000e+00
1.010263e+00 4.481273e-01 0.000000e+00
9.717057e-01 4.480149e-01 0.000000e+00
9.717261e-01 4.750000e-01 0.000000e+00
1.010263e+00 4.481273e-01 0.000000e+00
1.010294e+00 4.750000e-01 0.000000e+00
1.010284e+00 4.252633e-01 0.000000e+00
1.010263e+00 4.481273e-01 0.000000e+00
1.048789e+00 4.254756e-01 0.000000e+00
1.048780e+00 4.482436e-01 0.000000e+00
1.010263e+00 4.481273e-01 0.000000e+00
1.010294e+00 4.750000e-01 0.000000e+00
1.048780e+00 4.482436e-01 0.000000e+00
1.048825e+00 4.750000e-01 0.000000e+00
1.048789e+00 4.254756e-01 0.000000e+00
1.048780e+00 4.482436e-01 0.000000e+00
1.087248e+00 4.256947e-01 0.000000e+00
1.087255e+00 4.483641e-01 0.000000e+00
1.048780e+00 4.482436e-01 0.000000e+00
1.048825e+00 4.750000e-01 0.000000e+00
1.087255e+00 4.483641e-01 0.000000e+00
1.087318e+00 4.750000e-01 0.000000e+00
1.087248e+00 4.256947e-01 0.000000e+00
1.087255e+00 4.483641e-01 0.000000e+00
1.125658e+00 4.259205e-01 0.000000e+00
1.125686e+00 4.484888e-01 0.000000e+00
1.087255e+00 4.483641e-01 0.000000e+00
1.087318e+00 4.750000e-01 0.000000e+00
1.125686e+00 4.484888e-01 0.000000e+00
1.125772e+00 4.750000e-01 0.000000e+00
1.125658e+00 4.259205e-01 0.000000e+00
1.125686e+00 4.484888e-01 0.000000e+00
1.164016e+00 4.261530e-01 0.000000e+00
1.164071e+00 4.486178e-01 0.000000e+00
1.125686e+00 4.484888e-01 0.000000e+00
1.125772e+00 4.750000e-01 0.000000e+00
1.164071e+00 4.486178e-01 0.000000e+00
1.164186e+00 4.750000e-01 0.000000e+00
1.164016e+00 4.261530e-01 0.000000e+00
1.164071e+00 4.486178e-01 0.000000e+00
1.202316e+00 4.263921e-01 0.000000e+00
1.202408e+00 4.487514e-01 0.000000e+00
1.164071e+00 4.486178e-01 0.000000e+00
1.164186e+00 4.750000e-01 0.000000e+00
1.202408e+00 4.487514e-01 0.000000e+00
1.202560e+00 4.750000e-01 0.000000e+00
1.202316e+00 4.263921e-01 0.000000e+00
[...]
<PointData>
<DataArray type="Float32" Name="V1" format="ascii">
2.288459e+02
9.052025e+01
2.289318e+02
9.060621e+01
9.390745e+01
2.458408e+01
9.394297e+01
2.461960e+01
2.289619e+02
9.055425e+01
2.291726e+02
9.076496e+01
9.397316e+01
2.460630e+01
9.407196e+01
2.470510e+01
2.292491e+02
9.067456e+01
2.295946e+02
9.102001e+01
9.412914e+01
2.467492e+01
9.429865e+01
2.484443e+01
2.297143e+02
9.088879e+01
2.301957e+02
9.137027e+01
9.438174e+01
2.479628e+01
9.462163e+01
2.503618e+01
2.303583e+02
9.119735e+01
2.309776e+02
9.181662e+01
9.473130e+01
2.497038e+01
9.504191e+01
2.528099e+01
2.311829e+02
9.160115e+01
2.319419e+02
9.236011e+01
9.517865e+01
2.519760e+01
9.556065e+01
2.557960e+01
2.321903e+02
9.210134e+01
2.330911e+02
9.300212e+01
9.572493e+01
2.547852e+01
9.617926e+01
2.593285e+01
2.333830e+02
9.269927e+01
2.344280e+02
9.374429e+01
9.637155e+01
2.581390e+01
9.689939e+01
2.634174e+01
2.347641e+02
9.339657e+01
2.359561e+02
9.458859e+01
9.712021e+01
2.620465e+01
9.772298e+01
2.680742e+01
2.363370e+02
9.419509e+01
2.376792e+02
9.553728e+01
9.797292e+01
2.665188e+01
9.865225e+01
2.733121e+01
2.381059e+02
9.509702e+01
2.396018e+02
9.659293e+01
9.893196e+01
2.715685e+01
9.968975e+01
2.791463e+01
2.400753e+02
9.610479e+01
2.417289e+02
9.775841e+01
9.999994e+01
2.772100e+01
1.008383e+02
2.855937e+01
2.422503e+02
9.722120e+01
2.440660e+02
9.903696e+01
1.011798e+02
2.834598e+01
1.021011e+02
2.926733e+01
2.446365e+02
9.844934e+01
2.466193e+02
1.004321e+02
1.024748e+02
2.903364e+01
1.034818e+02
3.004065e+01
2.472403e+02
9.979266e+01
2.493956e+02
1.019479e+02
1.038886e+02
2.978603e+01
1.049843e+02
3.088168e+01
2.500685e+02
1.012550e+02
2.524022e+02
1.035887e+02
1.054253e+02
3.060548e+01
1.066128e+02
3.179306e+01
2.531287e+02
1.028406e+02
2.556472e+02
1.053591e+02
1.070892e+02
3.149454e+01
1.083724e+02
3.277771e+01
2.564290e+02
1.045541e+02
2.591395e+02
1.072646e+02
1.088853e+02
3.245607e+01
1.102681e+02
3.383887e+01
2.599784e+02
1.064007e+02
2.628886e+02
1.093108e+02
1.108190e+02
3.349324e+01
1.123059e+02
3.498014e+01
2.637865e+02
1.083859e+02
2.669045e+02
1.115039e+02
1.128962e+02
3.460959e+01
1.144921e+02
3.620553e+01
2.678635e+02
1.105159e+02
2.711985e+02
1.138509e+02
1.151233e+02
3.580904e+01
1.168338e+02
3.751948e+01
2.722204e+02
1.127976e+02
2.757820e+02
1.163592e+02
1.175076e+02
3.709599e+01
1.193386e+02
3.892700e+01
2.768691e+02
1.152383e+02
2.806677e+02
1.190370e+02
1.200567e+02
3.847535e+01
1.220150e+02
4.043369e+01
2.818218e+02
1.178463e+02
2.858686e+02
1.218931e+02
1.227792e+02
3.995265e+01
1.248724e+02
4.204587e+01
2.870917e+02
1.206304e+02
2.913985e+02
1.249372e+02
1.256846e+02
4.153416e+01
1.279212e+02
4.377072e+01
2.926922e+02
1.236006e+02
2.972716e+02
1.281800e+02
1.287832e+02
4.322701e+01
1.311727e+02
4.561645e+01
2.986370e+02
1.267678e+02
3.035022e+02
1.316330e+02
1.320865e+02
4.503935e+01
1.346397e+02
4.759252e+01
3.049401e+02
1.301442e+02
3.101049e+02
1.353090e+02
1.356071e+02
4.698063e+01
1.383364e+02
4.970992e+01
3.116151e+02
1.337431e+02
3.170937e+02
1.392217e+02
1.393591e+02
4.906184e+01
1.422788e+02
5.198155e+01
3.186745e+02
1.375797e+02
3.244813e+02
1.433865e+02
1.433582e+02
5.129594e+01
1.464850e+02
5.442272e+01
3.261294e+02
1.416709e+02
3.322786e+02
1.478201e+02
1.476221e+02
5.369834e+01
1.509755e+02
5.705175e+01
3.339883e+02
1.460357e+02
3.404934e+02
1.525409e+02
1.521707e+02
5.628758e+01
1.557740e+02
5.989091e+01
3.422552e+02
1.506961e+02
3.491284e+02
1.575693e+02
1.570265e+02
5.908623e+01
1.609077e+02
6.296749e+01
3.509282e+02
1.556771e+02
3.581789e+02
1.629278e+02
1.622154e+02
6.212209e+01
1.664087e+02
6.631544e+01
3.599963e+02
1.610079e+02
3.676299e+02
1.686414e+02
1.677673e+02
6.542983e+01
1.723149e+02
6.997744e+01
3.694357e+02
1.667223e+02
3.774510e+02
1.747376e+02
1.737166e+02
6.905330e+01
1.786713e+02
7.400794e+01
3.792050e+02
1.728604e+02
3.875912e+02
1.812466e+02
1.801039e+02
7.304870e+01
1.855325e+02
7.847730e+01
3.892385e+02
1.794694e+02
3.979702e+02
1.882011e+02
1.869760e+02
7.748922e+01
1.929646e+02
8.347787e+01
3.994376e+02
1.866047e+02
4.084687e+02
1.956358e+02
1.943871e+02
8.247199e+01
2.010481e+02
8.913301e+01
4.096600e+02
1.943312e+02
4.189151e+02
2.035863e+02
2.023974e+02
8.812903e+01
2.098796e+02
9.561128e+01
4.197050e+02
2.027241e+02
4.290696e+02
2.120886e+02
2.110664e+02
9.464582e+01
2.195714e+02
1.031508e+02
4.292913e+02
2.118746e+02
4.386056e+02
2.211890e+02
2.204297e+02
1.022972e+02
2.302403e+02
1.121078e+02
4.380065e+02
2.219242e+02
4.470880e+02
2.310057e+02
2.304241e+02
1.115343e+02
2.419733e+02
1.230835e+02
4.451336e+02
2.332455e+02
4.539719e+02
2.420838e+02
2.407015e+02
1.232559e+02
2.548025e+02
1.373570e+02
4.489175e+02
2.473063e+02
4.587595e+02
2.571483e+02
2.493362e+02
1.408196e+02
2.688707e+02
1.603541e+02
4.512946e+02
2.657546e+02
4.618609e+02
2.763209e+02
2.629055e+02
1.678601e+02
2.793381e+02
1.842927e+02
4.579672e+02
2.798700e+02
4.689545e+02
2.908573e+02
2.773086e+02
1.841330e+02
2.900996e+02
1.969240e+02
4.685289e+02
2.911773e+02
4.811021e+02
3.037505e+02
2.903734e+02
1.966407e+02
3.024203e+02
2.086877e+02
4.821800e+02
3.025220e+02
4.957922e+02
3.161342e+02
3.035440e+02
2.078958e+02
3.149131e+02
2.192649e+02
4.977648e+02
3.139765e+02
5.119399e+02
3.281517e+02
3.165446e+02
2.181464e+02
3.272452e+02
2.288470e+02
5.144575e+02
3.254113e+02
5.287872e+02
3.397410e+02
3.291965e+02
2.275194e+02
3.392219e+02
2.375448e+02
5.316192e+02
3.366536e+02
5.457558e+02
3.507902e+02
3.413572e+02
2.360968e+02
3.506909e+02
2.454305e+02
5.487364e+02
3.475338e+02
5.623875e+02
3.611849e+02
3.529036e+02
2.439335e+02
3.615239e+02
2.525538e+02
5.653898e+02
3.578995e+02
5.783119e+02
3.708217e+02
3.637285e+02
2.510655e+02
3.716111e+02
2.589481e+02
5.812352e+02
3.676200e+02
5.932278e+02
3.796126e+02
3.737392e+02
2.575149e+02
3.808601e+02
2.646358e+02
5.959911e+02
3.765852e+02
6.068903e+02
3.874845e+02
3.828572e+02
2.632941e+02
3.891937e+02
2.696306e+02
6.094281e+02
3.847043e+02
6.191014e+02
3.943776e+02
3.910167e+02
2.684089e+02
3.965485e+02
2.739407e+02
6.213612e+02
3.919028e+02
6.297029e+02
4.002444e+02
3.981636e+02
2.728611e+02
4.028731e+02
2.775707e+02
6.316429e+02
3.981206e+02
6.385698e+02
4.050475e+02
4.042538e+02
2.766497e+02
4.081265e+02
2.805224e+02
6.401575e+02
4.033101e+02
6.456062e+02
4.087588e+02
4.092528e+02
2.797725e+02
4.122768e+02
2.827965e+02
6.468171e+02
4.074342e+02
6.507407e+02
4.113577e+02
4.131336e+02
2.822269e+02
4.152999e+02
2.843932e+02
6.515574e+02
4.104647e+02
6.539240e+02
4.128312e+02
4.158768e+02
2.840102e+02
4.171791e+02
2.853125e+02
6.543350e+02
4.123818e+02
6.551259e+02
4.131727e+02
4.174691e+02
2.851200e+02
4.179036e+02
2.855545e+02
</DataArray>
<DataArray type="Float32" Name="V2" format="ascii">
4.224375e-01
4.465957e-01
4.232870e-01
4.474311e-01
4.465957e-01
4.750000e-01
4.474311e-01
4.758248e-01
4.232870e-01
4.474311e-01
4.258225e-01
4.499378e-01
4.474311e-01
4.758248e-01
4.499378e-01
4.782979e-01
4.258225e-01
4.499378e-01
4.300441e-01
4.541117e-01
4.499378e-01
4.782979e-01
4.541117e-01
4.824158e-01
4.300441e-01
4.541117e-01
4.359460e-01
4.599467e-01
4.541117e-01
4.824158e-01
4.599467e-01
4.881726e-01
4.359460e-01
4.599467e-01
4.435197e-01
4.674346e-01
4.599467e-01
4.881726e-01
4.674346e-01
4.955601e-01
4.435197e-01
4.674346e-01
4.527543e-01
4.765646e-01
4.674346e-01
4.955601e-01
4.765646e-01
5.045677e-01
4.527543e-01
4.765646e-01
4.636366e-01
4.873236e-01
4.765646e-01
5.045677e-01
4.873236e-01
5.151825e-01
4.636366e-01
4.873236e-01
4.761511e-01
4.996963e-01
4.873236e-01
5.151825e-01
4.996963e-01
5.273894e-01
4.761511e-01
4.996963e-01
4.902796e-01
5.136648e-01
4.996963e-01
5.273894e-01
5.136648e-01
5.411707e-01
4.902796e-01
5.136648e-01
5.060019e-01
5.292090e-01
5.136648e-01
5.411707e-01
5.292090e-01
5.565066e-01
5.060019e-01
5.292090e-01
5.232954e-01
5.463067e-01
5.292090e-01
5.565066e-01
5.463067e-01
5.733752e-01
5.232954e-01
5.463067e-01
5.421350e-01
5.649331e-01
5.463067e-01
5.733752e-01
5.649331e-01
5.917520e-01
5.421350e-01
5.649331e-01
5.624936e-01
5.850612e-01
5.649331e-01
5.917520e-01
5.850612e-01
6.116105e-01
5.624936e-01
5.850612e-01
5.843417e-01
6.066620e-01
5.850612e-01
6.116105e-01
6.066620e-01
6.329219e-01
5.843417e-01
6.066620e-01
6.076475e-01
6.297041e-01
6.066620e-01
6.329219e-01
6.297041e-01
6.556554e-01
6.076475e-01
6.297041e-01
6.323771e-01
6.541540e-01
6.297041e-01
6.556554e-01
6.541540e-01
6.797777e-01
6.323771e-01
6.541540e-01
6.584943e-01
6.799759e-01
6.541540e-01
6.797777e-01
6.799759e-01
7.052539e-01
6.584943e-01
6.799759e-01
6.859610e-01
7.071322e-01
6.799759e-01
7.052539e-01
7.071322e-01
7.320465e-01
6.859610e-01
7.071322e-01
7.147367e-01
7.355829e-01
7.071322e-01
7.320465e-01
7.355829e-01
7.601162e-01
7.147367e-01
7.355829e-01
7.447791e-01
7.652861e-01
7.355829e-01
7.601162e-01
7.652861e-01
7.894219e-01
7.447791e-01
7.652861e-01
7.760437e-01
7.961980e-01
7.652861e-01
7.894219e-01
7.961980e-01
8.199202e-01
7.760437e-01
7.961980e-01
8.084840e-01
8.282727e-01
7.961980e-01
8.199202e-01
8.282727e-01
8.515660e-01
8.084840e-01
8.282727e-01
8.420516e-01
8.614626e-01
8.282727e-01
8.515660e-01
8.614626e-01
8.843123e-01
8.420516e-01
8.614626e-01
8.766961e-01
8.957179e-01
8.614626e-01
8.843123e-01
8.957179e-01
9.181103e-01
8.766961e-01
8.957179e-01
9.123653e-01
9.309874e-01
8.957179e-01
9.181103e-01
9.309874e-01
9.529095e-01
9.123653e-01
9.309874e-01
9.490050e-01
9.672179e-01
9.309874e-01
9.529095e-01
9.672179e-01
9.886579e-01
9.490050e-01
9.672179e-01
9.865594e-01
1.004355e+00
9.672179e-01
9.886579e-01
1.004355e+00
1.025302e+00
9.865594e-01
1.004355e+00
1.024971e+00
1.042341e+00
1.004355e+00
1.025302e+00
1.042341e+00
1.062786e+00
1.024971e+00
1.042341e+00
1.064179e+00
1.081119e+00
1.042341e+00
1.062786e+00
1.081119e+00
1.101053e+00
1.064179e+00
1.081119e+00
1.104124e+00
1.120630e+00
1.081119e+00
1.101053e+00
1.120630e+00
1.140047e+00
1.104124e+00
1.120630e+00
1.144741e+00
1.160812e+00
1.120630e+00
1.140047e+00
1.160812e+00
1.179709e+00
1.144741e+00
1.160812e+00
1.185966e+00
1.201603e+00
1.160812e+00
1.179709e+00
1.201603e+00
1.219978e+00
1.185966e+00
1.201603e+00
1.227732e+00
1.242940e+00
1.201603e+00
1.219978e+00
1.242940e+00
1.260795e+00
1.227732e+00
1.242940e+00
1.269970e+00
1.284759e+00
1.242940e+00
1.260795e+00
1.284759e+00
1.302100e+00
1.269970e+00
1.284759e+00
1.312608e+00
1.326994e+00
1.284759e+00
1.302100e+00
1.326994e+00
1.343833e+00
1.312608e+00
1.326994e+00
1.355573e+00
1.369579e+00
1.326994e+00
1.343833e+00
1.369579e+00
1.385934e+00
1.355573e+00
1.369579e+00
1.398788e+00
1.412447e+00
1.369579e+00
1.385934e+00
1.412447e+00
1.428346e+00
1.398788e+00
1.412447e+00
1.442173e+00
1.455530e+00
1.412447e+00
1.428346e+00
1.455530e+00
1.471012e+00
1.442173e+00
1.455530e+00
1.485643e+00
1.498761e+00
1.455530e+00
1.471012e+00
1.498761e+00
1.513883e+00
1.485643e+00
1.498761e+00
1.529109e+00
1.542069e+00
1.498761e+00
1.513883e+00
1.542069e+00
1.556910e+00
1.529109e+00
1.542069e+00
1.572474e+00
1.585385e+00
1.542069e+00
1.556910e+00
1.585385e+00
1.600057e+00
1.572474e+00
1.585385e+00
1.615630e+00
1.628633e+00
1.585385e+00
1.600057e+00
1.628633e+00
1.643301e+00
1.615630e+00
1.628633e+00
1.658447e+00
1.671725e+00
1.628633e+00
1.643301e+00
1.671725e+00
1.686635e+00
1.658447e+00
1.671725e+00
1.700738e+00
1.714517e+00
1.671725e+00
1.686635e+00
1.714517e+00
1.730059e+00
1.700738e+00
1.714517e+00
1.742219e+00
1.756631e+00
1.714517e+00
1.730059e+00
1.756631e+00
1.773072e+00
1.742219e+00
1.756631e+00
1.782006e+00
1.796698e+00
1.756631e+00
1.773072e+00
1.796698e+00
1.813227e+00
1.782006e+00
1.796698e+00
1.819069e+00
1.834068e+00
1.796698e+00
1.813227e+00
1.834068e+00
1.850964e+00
1.819069e+00
1.834068e+00
1.853398e+00
1.868905e+00
1.834068e+00
1.850964e+00
1.868905e+00
1.886338e+00
1.853398e+00
1.868905e+00
1.885065e+00
1.901157e+00
1.868905e+00
1.886338e+00
1.901157e+00
1.919199e+00
1.885065e+00
1.901157e+00
1.914135e+00
1.930821e+00
1.901157e+00
1.919199e+00
1.930821e+00
1.949487e+00
1.914135e+00
1.930821e+00
1.940680e+00
1.957929e+00
1.930821e+00
1.949487e+00
1.957929e+00
1.977196e+00
1.940680e+00
1.957929e+00
1.964771e+00
1.982535e+00
1.957929e+00
1.977196e+00
1.982535e+00
2.002357e+00
1.964771e+00
1.982535e+00
1.986484e+00
2.004702e+00
1.982535e+00
2.002357e+00
2.004702e+00
2.025024e+00
1.986484e+00
2.004702e+00
2.005889e+00
2.024502e+00
2.004702e+00
2.025024e+00
2.024502e+00
2.045262e+00
2.005889e+00
2.024502e+00
2.023056e+00
2.042005e+00
2.024502e+00
2.045262e+00
2.042005e+00
2.063141e+00
2.023056e+00
2.042005e+00
2.038047e+00
2.057277e+00
2.042005e+00
2.063141e+00
2.057277e+00
2.078732e+00
2.038047e+00
2.057277e+00
2.050920e+00
2.070381e+00
2.057277e+00
2.078732e+00
2.070381e+00
2.092101e+00
2.050920e+00
2.070381e+00
2.061726e+00
2.081373e+00
2.070381e+00
2.092101e+00
2.081373e+00
2.103306e+00
2.061726e+00
2.081373e+00
2.070508e+00
2.090300e+00
2.081373e+00
2.103306e+00
2.090300e+00
2.112402e+00
2.070508e+00
2.090300e+00
2.077301e+00
2.097202e+00
2.090300e+00
2.112402e+00
2.097202e+00
2.119430e+00
2.077301e+00
2.097202e+00
2.082134e+00
2.102110e+00
2.097202e+00
2.119430e+00
2.102110e+00
2.124426e+00
2.082134e+00
2.102110e+00
2.085025e+00
2.105045e+00
2.102110e+00
2.124426e+00
2.105045e+00
2.127414e+00
2.085025e+00
2.105045e+00
2.085988e+00
2.106022e+00
2.105045e+00
2.127414e+00
2.106022e+00
2.128408e+00
</DataArray>
<DataArray type="Float32" Name="V3" format="ascii">
0.000000e+00
0.000000e+00
2.846435e-02
2.785894e-02
0.000000e+00
0.000000e+00
2.785894e-02
2.714976e-02
2.846435e-02
2.785894e-02
5.686083e-02
5.565063e-02
2.785894e-02
2.714976e-02
5.565063e-02
5.423295e-02
5.686083e-02
5.565063e-02
8.512122e-02
8.330760e-02
5.565063e-02
5.423295e-02
8.330760e-02
8.118307e-02
8.512122e-02
8.330760e-02
1.131777e-01
1.107627e-01
8.330760e-02
8.118307e-02
1.107627e-01
1.079337e-01
1.131777e-01
1.107627e-01
1.409626e-01
1.379491e-01
1.107627e-01
1.079337e-01
1.379491e-01
1.344188e-01
1.409626e-01
1.379491e-01
1.684088e-01
1.648000e-01
1.379491e-01
1.344188e-01
1.648000e-01
1.605725e-01
1.684088e-01
1.648000e-01
1.954492e-01
1.912494e-01
1.648000e-01
1.605725e-01
1.912494e-01
1.863293e-01
1.954492e-01
1.912494e-01
2.220175e-01
2.172313e-01
1.912494e-01
1.863293e-01
2.172313e-01
2.116243e-01
2.220175e-01
2.172313e-01
2.480477e-01
2.426807e-01
2.172313e-01
2.116243e-01
2.426807e-01
2.363930e-01
2.480477e-01
2.426807e-01
2.734747e-01
2.675327e-01
2.426807e-01
2.363930e-01
2.675327e-01
2.605715e-01
2.734747e-01
2.675327e-01
2.982337e-01
2.917237e-01
2.675327e-01
2.605715e-01
2.917237e-01
2.840966e-01
2.982337e-01
2.917237e-01
3.222611e-01
3.151902e-01
2.917237e-01
2.840966e-01
3.151902e-01
3.069059e-01
3.222611e-01
3.151902e-01
3.454939e-01
3.378701e-01
3.151902e-01
3.069059e-01
3.378701e-01
3.289378e-01
3.454939e-01
3.378701e-01
3.678700e-01
3.597019e-01
3.378701e-01
3.289378e-01
3.597019e-01
3.501316e-01
3.678700e-01
3.597019e-01
3.893285e-01
3.806252e-01
3.597019e-01
3.501316e-01
3.806252e-01
3.704275e-01
3.893285e-01
3.806252e-01
4.098092e-01
4.005805e-01
3.806252e-01
3.704275e-01
4.005805e-01
3.897668e-01
4.098092e-01
4.005805e-01
4.292535e-01
4.195097e-01
4.005805e-01
3.897668e-01
4.195097e-01
4.080921e-01
4.292535e-01
4.195097e-01
4.476037e-01
4.373556e-01
4.195097e-01
4.080921e-01
4.373556e-01
4.253468e-01
4.476037e-01
4.373556e-01
4.648034e-01
4.540626e-01
4.373556e-01
4.253468e-01
4.540626e-01
4.414759e-01
4.648034e-01
4.540626e-01
4.807976e-01
4.695761e-01
4.540626e-01
4.414759e-01
4.695761e-01
4.564256e-01
4.807976e-01
4.695761e-01
4.955328e-01
4.838431e-01
4.695761e-01
4.564256e-01
4.838431e-01
4.701434e-01
4.955328e-01
4.838431e-01
5.089569e-01
4.968121e-01
4.838431e-01
4.701434e-01
4.968121e-01
4.825786e-01
5.089569e-01
4.968121e-01
5.210192e-01
5.084331e-01
4.968121e-01
4.825786e-01
5.084331e-01
4.936818e-01
5.210192e-01
5.084331e-01
5.316708e-01
5.186576e-01
5.084331e-01
4.936818e-01
5.186576e-01
5.034053e-01
5.316708e-01
5.186576e-01
5.408644e-01
5.274389e-01
5.186576e-01
5.034053e-01
5.274389e-01
5.117031e-01
5.408644e-01
5.274389e-01
5.485543e-01
5.347321e-01
5.274389e-01
5.117031e-01
5.347321e-01
5.185310e-01
5.485543e-01
5.347321e-01
5.546965e-01
5.404938e-01
5.347321e-01
5.185310e-01
5.404938e-01
5.238466e-01
5.546965e-01
5.404938e-01
5.592491e-01
5.446829e-01
5.404938e-01
5.238466e-01
5.446829e-01
5.276096e-01
5.592491e-01
5.446829e-01
5.621718e-01
5.472598e-01
5.446829e-01
5.276096e-01
5.472598e-01
5.297817e-01
5.621718e-01
5.472598e-01
5.634261e-01
5.481870e-01
5.472598e-01
5.297817e-01
5.481870e-01
5.303266e-01
5.634261e-01
5.481870e-01
5.629755e-01
5.474292e-01
5.481870e-01
5.303266e-01
5.474292e-01
5.292104e-01
5.629755e-01
5.474292e-01
5.607853e-01
5.449530e-01
5.474292e-01
5.292104e-01
5.449530e-01
5.264015e-01
5.607853e-01
5.449530e-01
5.568227e-01
5.407271e-01
5.449530e-01
5.264015e-01
5.407271e-01
5.218709e-01
5.568227e-01
5.407271e-01
5.510567e-01
5.347223e-01
5.407271e-01
5.218709e-01
5.347223e-01
5.155920e-01
5.510567e-01
5.347223e-01
5.434584e-01
5.269118e-01
5.347223e-01
5.155920e-01
5.269118e-01
5.075411e-01
5.434584e-01
5.269118e-01
5.340002e-01
5.172707e-01
5.269118e-01
5.075411e-01
5.172707e-01
4.976976e-01
5.340002e-01
5.172707e-01
5.226564e-01
5.057766e-01
5.172707e-01
4.976976e-01
5.057766e-01
4.860438e-01
5.226564e-01
5.057766e-01
5.094031e-01
4.924090e-01
5.057766e-01
4.860438e-01
4.924090e-01
4.725658e-01
5.094031e-01
4.924090e-01
4.942177e-01
4.771496e-01
4.924090e-01
4.725658e-01
4.771496e-01
4.572533e-01
4.942177e-01
4.771496e-01
4.770789e-01
4.599820e-01
4.771496e-01
4.572533e-01
4.599820e-01
4.401004e-01
4.770789e-01
4.599820e-01
4.579675e-01
4.408921e-01
4.599820e-01
4.401004e-01
4.408921e-01
4.211063e-01
4.579675e-01
4.408921e-01
4.368667e-01
4.198685e-01
4.408921e-01
4.211063e-01
4.198685e-01
4.002772e-01
4.368667e-01
4.198685e-01
4.137674e-01
3.969071e-01
4.198685e-01
4.002772e-01
3.969071e-01
3.776269e-01
4.137674e-01
3.969071e-01
3.886945e-01
3.720323e-01
3.969071e-01
3.776269e-01
3.720323e-01
3.531647e-01
3.886945e-01
3.720323e-01
3.618311e-01
3.453956e-01
3.720323e-01
3.531647e-01
3.453956e-01
3.266562e-01
3.618311e-01
3.453956e-01
3.347963e-01
3.188318e-01
3.453956e-01
3.266562e-01
3.188318e-01
3.005999e-01
3.347963e-01
3.188318e-01
3.093530e-01
2.940839e-01
3.188318e-01
3.005999e-01
2.940839e-01
2.768278e-01
3.093530e-01
2.940839e-01
2.854178e-01
2.709469e-01
2.940839e-01
2.768278e-01
2.709469e-01
2.547271e-01
2.854178e-01
2.709469e-01
2.627456e-01
2.491626e-01
2.709469e-01
2.547271e-01
2.491626e-01
2.340237e-01
2.627456e-01
2.491626e-01
2.411209e-01
2.284926e-01
2.491626e-01
2.340237e-01
2.284926e-01
2.144698e-01
2.411209e-01
2.284926e-01
2.203570e-01
2.087272e-01
2.284926e-01
2.144698e-01
2.087272e-01
1.958442e-01
2.203570e-01
2.087272e-01
2.002948e-01
1.896875e-01
2.087272e-01
1.958442e-01
1.896875e-01
1.779557e-01
2.002948e-01
1.896875e-01
1.808004e-01
1.712241e-01
1.896875e-01
1.779557e-01
1.712241e-01
1.606431e-01
1.808004e-01
1.712241e-01
1.617625e-01
1.532138e-01
1.712241e-01
1.606431e-01
1.532138e-01
1.437741e-01
1.617625e-01
1.532138e-01
1.430887e-01
1.355560e-01
1.532138e-01
1.437741e-01
1.355560e-01
1.272413e-01
1.430887e-01
1.355560e-01
1.247030e-01
1.181698e-01
1.355560e-01
1.272413e-01
1.181698e-01
1.109598e-01
1.247030e-01
1.181698e-01
1.065431e-01
1.009903e-01
1.181698e-01
1.109598e-01
1.009903e-01
9.486284e-02
1.065431e-01
1.009903e-01
8.855769e-02
8.396605e-02
1.009903e-01
9.486284e-02
8.396605e-02
7.889915e-02
8.855769e-02
8.396605e-02
7.070493e-02
6.705616e-02
8.396605e-02
7.889915e-02
6.705616e-02
6.302958e-02
7.070493e-02
6.705616e-02
5.295005e-02
5.022832e-02
6.705616e-02
6.302958e-02
5.022832e-02
4.722463e-02
5.295005e-02
5.022832e-02
3.526389e-02
3.345666e-02
5.022832e-02
4.722463e-02
3.345666e-02
3.146212e-02
3.526389e-02
3.345666e-02
1.762136e-02
1.671996e-02
3.345666e-02
3.146212e-02
1.671996e-02
1.572510e-02
1.762136e-02
1.671996e-02
0.000000e+00
0.000000e+00
1.671996e-02
1.572510e-02
0.000000e+00
0.000000e+00
</DataArray>
<DataArray type="Float32" Name="V4" format="ascii">
8.500000e-01
9.250000e-01
8.500000e-01
9.250000e-01
9.250000e-01
1.000000e+00