<?xml version="1.0"?>
<VTKFile type="UnstructuredGrid" version="0.1" byte_order="LittleEndian" compressor="vtkZLibDataCompressor">
<UnstructuredGrid>
<Piece NumberOfPoints="504" NumberOfCells="126">
<Points>
<DataArray type="Float32" NumberOfComponents="3" format="ascii">
0.000000e+00 4.191070e-01 0.000000e+00
0.000000e+00 4.427856e-01 0.000000e+00
3.940153e-02 4.191153e-01 0.000000e+00
3.939858e-02 4.427874e-01 0.000000e+00
0.000000e+00 4.427856e-01 0.000000e+00
0.000000e+00 4.706250e-01 0.000000e+00
3.939858e-02 4.427874e-01 0.000000e+00
3.939774e-02 4.706250e-01 0.000000e+00
3.940153e-02 4.191153e-01 0.000000e+00
3.939858e-02 4.427874e-01 0.000000e+00
7.880202e-02 4.191282e-01 0.000000e+00
7.879605e-02 4.427943e-01 0.000000e+00
3.939858e-02 4.427874e-01 0.000000e+00
3.939774e-02 4.706250e-01 0.000000e+00
7.879605e-02 4.427943e-01 0.000000e+00
7.879427e-02 4.706250e-01 0.000000e+00
7.880202e-02 4.191282e-01 0.000000e+00
7.879605e-02 4.427943e-01 0.000000e+00
1.182000e-01 4.191494e-01 0.000000e+00
1.181910e-01 4.428058e-01 0.000000e+00
7.879605e-02 4.427943e-01 0.000000e+00
7.879427e-02 4.706250e-01 0.000000e+00
1.181910e-01 4.428058e-01 0.000000e+00
1.181884e-01 4.706250e-01 0.000000e+00
1.182000e-01 4.191494e-01 0.000000e+00
1.181910e-01 4.428058e-01 0.000000e+00
1.575942e-01 4.191792e-01 0.000000e+00
1.575823e-01 4.428219e-01 0.000000e+00
1.181910e-01 4.428058e-01 0.000000e+00
1.181884e-01 4.706250e-01 0.000000e+00
1.575823e-01 4.428219e-01 0.000000e+00
1.575787e-01 4.706250e-01 0.000000e+00
1.575942e-01 4.191792e-01 0.000000e+00
1.575823e-01 4.428219e-01 0.000000e+00
1.969834e-01 4.192175e-01 0.000000e+00
1.969686e-01 4.428426e-01 0.000000e+00
1.575823e-01 4.428219e-01 0.000000e+00
1.575787e-01 4.706250e-01 0.000000e+00
1.969686e-01 4.428426e-01 0.000000e+00
1.969642e-01 4.706250e-01 0.000000e+00
1.969834e-01 4.192175e-01 0.000000e+00
1.969686e-01 4.428426e-01 0.000000e+00
2.363663e-01 4.192642e-01 0.000000e+00
2.363486e-01 4.428679e-01 0.000000e+00
1.969686e-01 4.428426e-01 0.000000e+00
1.969642e-01 4.706250e-01 0.000000e+00
2.363486e-01 4.428679e-01 0.000000e+00
2.363434e-01 4.706250e-01 0.000000e+00
2.363663e-01 4.192642e-01 0.000000e+00
2.363486e-01 4.428679e-01 0.000000e+00
2.757416e-01 4.193193e-01 0.000000e+00
2.757211e-01 4.428977e-01 0.000000e+00
2.363486e-01 4.428679e-01 0.000000e+00
2.363434e-01 4.706250e-01 0.000000e+00
2.757211e-01 4.428977e-01 0.000000e+00
2.757152e-01 4.706250e-01 0.000000e+00
2.757416e-01 4.193193e-01 0.000000e+00
2.757211e-01 4.428977e-01 0.000000e+00
3.151081e-01 4.193828e-01 0.000000e+00
3.150848e-01 4.429321e-01 0.000000e+00
2.757211e-01 4.428977e-01 0.000000e+00
2.757152e-01 4.706250e-01 0.000000e+00
3.150848e-01 4.429321e-01 0.000000e+00
3.150782e-01 4.706250e-01 0.000000e+00
3.151081e-01 4.193828e-01 0.000000e+00
3.150848e-01 4.429321e-01 0.000000e+00
3.544643e-01 4.194546e-01 0.000000e+00
3.544384e-01 4.429710e-01 0.000000e+00
3.150848e-01 4.429321e-01 0.000000e+00
3.150782e-01 4.706250e-01 0.000000e+00
3.544384e-01 4.429710e-01 0.000000e+00
3.544312e-01 4.706250e-01 0.000000e+00
3.544643e-01 4.194546e-01 0.000000e+00
3.544384e-01 4.429710e-01 0.000000e+00
3.938089e-01 4.195347e-01 0.000000e+00
3.937805e-01 4.430143e-01 0.000000e+00
3.544384e-01 4.429710e-01 0.000000e+00
3.544312e-01 4.706250e-01 0.000000e+00
3.937805e-01 4.430143e-01 0.000000e+00
3.937728e-01 4.706250e-01 0.000000e+00
3.938089e-01 4.195347e-01 0.000000e+00
3.937805e-01 4.430143e-01 0.000000e+00
4.331407e-01 4.196230e-01 0.000000e+00
4.331098e-01 4.430622e-01 0.000000e+00
3.937805e-01 4.430143e-01 0.000000e+00
3.937728e-01 4.706250e-01 0.000000e+00
4.331098e-01 4.430622e-01 0.000000e+00
4.331016e-01 4.706250e-01 0.000000e+00
4.331407e-01 4.196230e-01 0.000000e+00
4.331098e-01 4.430622e-01 0.000000e+00
4.724580e-01 4.197195e-01 0.000000e+00
4.724249e-01 4.431144e-01 0.000000e+00
4.331098e-01 4.430622e-01 0.000000e+00
4.331016e-01 4.706250e-01 0.000000e+00
4.724249e-01 4.431144e-01 0.000000e+00
4.724164e-01 4.706250e-01 0.000000e+00
4.724580e-01 4.197195e-01 0.000000e+00
4.724249e-01 4.431144e-01 0.000000e+00
5.117596e-01 4.198241e-01 0.000000e+00
5.117244e-01 4.431710e-01 0.000000e+00
4.724249e-01 4.431144e-01 0.000000e+00
4.724164e-01 4.706250e-01 0.000000e+00
5.117244e-01 4.431710e-01 0.000000e+00
5.117157e-01 4.706250e-01 0.000000e+00
5.117596e-01 4.198241e-01 0.000000e+00
5.117244e-01 4.431710e-01 0.000000e+00
5.510439e-01 4.199367e-01 0.000000e+00
5.510067e-01 4.432320e-01 0.000000e+00
5.117244e-01 4.431710e-01 0.000000e+00
5.117157e-01 4.706250e-01 0.000000e+00
5.510067e-01 4.432320e-01 0.000000e+00
5.509981e-01 4.706250e-01 0.000000e+00
5.510439e-01 4.199367e-01 0.000000e+00
5.510067e-01 4.432320e-01 0.000000e+00
5.903094e-01 4.200573e-01 0.000000e+00
5.902705e-01 4.432973e-01 0.000000e+00
5.510067e-01 4.432320e-01 0.000000e+00
5.509981e-01 4.706250e-01 0.000000e+00
5.902705e-01 4.432973e-01 0.000000e+00
5.902621e-01 4.706250e-01 0.000000e+00
5.903094e-01 4.200573e-01 0.000000e+00
5.902705e-01 4.432973e-01 0.000000e+00
6.295546e-01 4.201857e-01 0.000000e+00
6.295143e-01 4.433668e-01 0.000000e+00
5.902705e-01 4.432973e-01 0.000000e+00
5.902621e-01 4.706250e-01 0.000000e+00
6.295143e-01 4.433668e-01 0.000000e+00
6.295063e-01 4.706250e-01 0.000000e+00
6.295546e-01 4.201857e-01 0.000000e+00
6.295143e-01 4.433668e-01 0.000000e+00
6.687778e-01 4.203219e-01 0.000000e+00
6.687363e-01 4.434406e-01 0.000000e+00
6.295143e-01 4.433668e-01 0.000000e+00
6.295063e-01 4.706250e-01 0.000000e+00
6.687363e-01 4.434406e-01 0.000000e+00
6.687291e-01 4.706250e-01 0.000000e+00
6.687778e-01 4.203219e-01 0.000000e+00
6.687363e-01 4.434406e-01 0.000000e+00
7.079773e-01 4.204658e-01 0.000000e+00
7.079351e-01 4.435186e-01 0.000000e+00
6.687363e-01 4.434406e-01 0.000000e+00
6.687291e-01 4.706250e-01 0.000000e+00
7.079351e-01 4.435186e-01 0.000000e+00
7.079290e-01 4.706250e-01 0.000000e+00
7.079773e-01 4.204658e-01 0.000000e+00
7.079351e-01 4.435186e-01 0.000000e+00
7.471514e-01 4.206172e-01 0.000000e+00
7.471089e-01 4.436007e-01 0.000000e+00
7.079351e-01 4.435186e-01 0.000000e+00
7.079290e-01 4.706250e-01 0.000000e+00
7.471089e-01 4.436007e-01 0.000000e+00
7.471043e-01 4.706250e-01 0.000000e+00
7.471514e-01 4.206172e-01 0.000000e+00
7.471089e-01 4.436007e-01 0.000000e+00
7.862983e-01 4.207762e-01 0.000000e+00
7.862561e-01 4.436870e-01 0.000000e+00
7.471089e-01 4.436007e-01 0.000000e+00
7.471043e-01 4.706250e-01 0.000000e+00
7.862561e-01 4.436870e-01 0.000000e+00
7.862536e-01 4.706250e-01 0.000000e+00
7.862983e-01 4.207762e-01 0.000000e+00
7.862561e-01 4.436870e-01 0.000000e+00
8.254161e-01 4.209425e-01 0.000000e+00
8.253749e-01 4.437773e-01 0.000000e+00
7.862561e-01 4.436870e-01 0.000000e+00
7.862536e-01 4.706250e-01 0.000000e+00
8.253749e-01 4.437773e-01 0.000000e+00
8.253752e-01 4.706250e-01 0.000000e+00
8.254161e-01 4.209425e-01 0.000000e+00
8.253749e-01 4.437773e-01 0.000000e+00
8.645029e-01 4.211161e-01 0.000000e+00
8.644635e-01 4.438716e-01 0.000000e+00
8.253749e-01 4.437773e-01 0.000000e+00
8.253752e-01 4.706250e-01 0.000000e+00
8.644635e-01 4.438716e-01 0.000000e+00
8.644674e-01 4.706250e-01 0.000000e+00
8.645029e-01 4.211161e-01 0.000000e+00
8.644635e-01 4.438716e-01 0.000000e+00
9.035565e-01 4.212969e-01 0.000000e+00
9.035200e-01 4.439699e-01 0.000000e+00
8.644635e-01 4.438716e-01 0.000000e+00
8.644674e-01 4.706250e-01 0.000000e+00
9.035200e-01 4.439699e-01 0.000000e+00
9.035287e-01 4.706250e-01 0.000000e+00
9.035565e-01 4.212969e-01 0.000000e+00
9.035200e-01 4.439699e-01 0.000000e+00
9.425747e-01 4.214848e-01 0.000000e+00
9.425426e-01 4.440721e-01 0.000000e+00
9.035200e-01 4.439699e-01 0.000000e+00
9.035287e-01 4.706250e-01 0.000000e+00
9.425426e-01 4.440721e-01 0.000000e+00
9.425573e-01 4.706250e-01 0.000000e+00
9.425747e-01 4.214848e-01 0.000000e+00
9.425426e-01 4.440721e-01 0.000000e+00
9.815553e-01 4.216796e-01 0.000000e+00
9.815292e-01 4.441783e-01 0.000000e+00
9.425426e-01 4.440721e-01 0.000000e+00
9.425573e-01 4.706250e-01 0.000000e+00
9.815292e-01 4.441783e-01 0.000000e+00
9.815516e-01 4.706250e-01 0.000000e+00
9.815553e-01 4.216796e-01 0.000000e+00
9.815292e-01 4.441783e-01 0.000000e+00
1.020496e+00 4.218812e-01 0.000000e+00
1.020478e+00 4.442885e-01 0.000000e+00
9.815292e-01 4.441783e-01 0.000000e+00
9.815516e-01 4.706250e-01 0.000000e+00
1.020478e+00 4.442885e-01 0.000000e+00
1.020510e+00 4.706250e-01 0.000000e+00
1.020496e+00 4.218812e-01 0.000000e+00
1.020478e+00 4.442885e-01 0.000000e+00
1.059393e+00 4.220896e-01 0.000000e+00
1.059386e+00 4.444026e-01 0.000000e+00
1.020478e+00 4.442885e-01 0.000000e+00
1.020510e+00 4.706250e-01 0.000000e+00
1.059386e+00 4.444026e-01 0.000000e+00
1.059431e+00 4.706250e-01 0.000000e+00
1.059393e+00 4.220896e-01 0.000000e+00
1.059386e+00 4.444026e-01 0.000000e+00
1.098245e+00 4.223047e-01 0.000000e+00
1.098253e+00 4.445207e-01 0.000000e+00
1.059386e+00 4.444026e-01 0.000000e+00
1.059431e+00 4.706250e-01 0.000000e+00
1.098253e+00 4.445207e-01 0.000000e+00
1.098314e+00 4.706250e-01 0.000000e+00
1.098245e+00 4.223047e-01 0.000000e+00
1.098253e+00 4.445207e-01 0.000000e+00
1.137048e+00 4.225264e-01 0.000000e+00
1.137075e+00 4.446428e-01 0.000000e+00
1.098253e+00 4.445207e-01 0.000000e+00
1.098314e+00 4.706250e-01 0.000000e+00
1.137075e+00 4.446428e-01 0.000000e+00
1.137157e+00 4.706250e-01 0.000000e+00
1.137048e+00 4.225264e-01 0.000000e+00
1.137075e+00 4.446428e-01 0.000000e+00
1.175799e+00 4.227546e-01 0.000000e+00
1.175851e+00 4.447691e-01 0.000000e+00
1.137075e+00 4.446428e-01 0.000000e+00
1.137157e+00 4.706250e-01 0.000000e+00
1.175851e+00 4.447691e-01 0.000000e+00
1.175960e+00 4.706250e-01 0.000000e+00
1.175799e+00 4.227546e-01 0.000000e+00
1.175851e+00 4.447691e-01 0.000000e+00
1.214493e+00 4.229892e-01 0.000000e+00
1.214578e+00 4.448997e-01 0.000000e+00
1.175851e+00 4.447691e-01 0.000000e+00
1.175960e+00 4.706250e-01 0.000000e+00
1.214578e+00 4.448997e-01 0.000000e+00
1.214721e+00 4.706250e-01 0.000000e+00
1.214493e+00 4.229892e-01 0.000000e+00
[...]
<PointData>
<DataArray type="Float32" Name="V1" format="ascii">
2.475697e+02
9.873231e+01
2.476627e+02
9.882532e+01
1.023554e+02
2.753526e+01
1.023936e+02
2.757353e+01
2.476945e+02
9.876902e+01
2.479220e+02
9.899659e+01
1.024262e+02
2.755929e+01
1.025329e+02
2.766606e+01
2.480036e+02
9.889910e+01
2.483763e+02
9.927182e+01
1.025945e+02
2.763366e+01
1.027777e+02
2.781689e+01
2.485044e+02
9.913060e+01
2.490236e+02
9.964984e+01
1.028671e+02
2.776516e+01
1.031265e+02
2.802449e+01
2.491977e+02
9.946394e+01
2.498653e+02
1.001316e+02
1.032444e+02
2.795377e+01
1.035802e+02
2.828956e+01
2.500854e+02
9.990012e+01
2.509035e+02
1.007183e+02
1.037273e+02
2.819991e+01
1.041403e+02
2.861288e+01
2.511698e+02
1.004404e+02
2.521408e+02
1.014113e+02
1.043170e+02
2.850420e+01
1.048081e+02
2.899536e+01
2.524538e+02
1.010861e+02
2.535802e+02
1.022125e+02
1.050149e+02
2.886745e+01
1.055856e+02
2.943809e+01
2.539405e+02
1.018392e+02
2.552254e+02
1.031240e+02
1.058231e+02
2.929068e+01
1.064747e+02
2.994230e+01
2.556339e+02
1.027015e+02
2.570806e+02
1.041482e+02
1.067435e+02
2.977504e+01
1.074779e+02
3.050944e+01
2.575382e+02
1.036755e+02
2.591505e+02
1.052878e+02
1.077787e+02
3.032192e+01
1.085979e+02
3.114111e+01
2.596584e+02
1.047638e+02
2.614407e+02
1.065461e+02
1.089315e+02
3.093287e+01
1.098378e+02
3.183916e+01
2.620000e+02
1.059693e+02
2.639570e+02
1.079263e+02
1.102050e+02
3.160966e+01
1.112010e+02
3.260562e+01
2.645690e+02
1.072954e+02
2.667061e+02
1.094325e+02
1.116028e+02
3.235429e+01
1.126913e+02
3.344280e+01
2.673724e+02
1.087459e+02
2.696953e+02
1.110689e+02
1.131288e+02
3.316896e+01
1.143131e+02
3.435324e+01
2.704174e+02
1.103249e+02
2.729327e+02
1.128401e+02
1.147874e+02
3.405618e+01
1.160710e+02
3.533976e+01
2.737123e+02
1.120368e+02
2.764269e+02
1.147514e+02
1.165833e+02
3.501869e+01
1.179701e+02
3.640551e+01
2.772660e+02
1.138868e+02
2.801875e+02
1.168083e+02
1.185218e+02
3.605956e+01
1.200162e+02
3.755396e+01
2.810880e+02
1.158804e+02
2.842247e+02
1.190172e+02
1.206088e+02
3.718219e+01
1.222155e+02
3.878895e+01
2.851887e+02
1.180236e+02
2.885497e+02
1.213846e+02
1.228505e+02
3.839037e+01
1.245749e+02
4.011478e+01
2.895794e+02
1.203231e+02
2.931744e+02
1.239180e+02
1.252540e+02
3.968828e+01
1.271019e+02
4.153620e+01
2.942721e+02
1.227860e+02
2.981115e+02
1.266255e+02
1.278268e+02
4.108061e+01
1.298047e+02
4.305852e+01
2.992795e+02
1.254206e+02
3.033747e+02
1.295158e+02
1.305774e+02
4.257259e+01
1.326925e+02
4.468769e+01
3.046153e+02
1.282354e+02
3.089784e+02
1.325985e+02
1.335150e+02
4.417009e+01
1.357753e+02
4.643040e+01
3.102937e+02
1.312401e+02
3.149376e+02
1.358840e+02
1.366495e+02
4.587973e+01
1.390640e+02
4.829424e+01
3.163297e+02
1.344452e+02
3.212682e+02
1.393837e+02
1.399922e+02
4.770902e+01
1.425710e+02
5.028781e+01
3.227386e+02
1.378626e+02
3.279862e+02
1.431102e+02
1.435553e+02
4.966652e+01
1.463097e+02
5.242102e+01
3.295362e+02
1.415051e+02
3.351081e+02
1.470770e+02
1.473522e+02
5.176210e+01
1.502954e+02
5.470531e+01
3.367379e+02
1.453869e+02
3.426499e+02
1.512989e+02
1.513979e+02
5.400719e+01
1.545448e+02
5.715406e+01
3.443587e+02
1.495242e+02
3.506270e+02
1.557925e+02
1.557092e+02
5.641520e+01
1.590771e+02
5.978304e+01
3.524121e+02
1.539348e+02
3.590529e+02
1.605756e+02
1.603047e+02
5.900198e+01
1.639138e+02
6.261106e+01
3.609094e+02
1.586389e+02
3.679384e+02
1.656679e+02
1.652055e+02
6.178653e+01
1.690798e+02
6.566079e+01
3.698581e+02
1.636594e+02
3.772900e+02
1.710913e+02
1.704353e+02
6.479180e+01
1.746034e+02
6.895993e+01
3.792599e+02
1.690226e+02
3.871072e+02
1.768699e+02
1.760212e+02
6.804594e+01
1.805180e+02
7.254269e+01
3.891085e+02
1.747589e+02
3.973798e+02
1.830302e+02
1.819945e+02
7.158386e+01
1.868625e+02
7.645187e+01
3.993852e+02
1.809034e+02
4.080834e+02
1.896016e+02
1.883910e+02
7.544941e+01
1.936833e+02
8.074173e+01
4.100547e+02
1.874974e+02
4.191736e+02
1.966164e+02
1.952526e+02
7.969847e+01
2.010361e+02
8.548202e+01
4.210585e+02
1.945897e+02
4.305786e+02
2.041098e+02
2.026281e+02
8.440334e+01
2.089884e+02
9.076366e+01
4.323066e+02
2.022374e+02
4.421884e+02
2.121192e+02
2.105739e+02
8.965918e+01
2.176219e+02
9.670724e+01
4.436662e+02
2.105075e+02
4.538423e+02
2.206836e+02
2.191539e+02
9.559402e+01
2.270358e+02
1.034759e+02
4.549484e+02
2.194773e+02
4.653130e+02
2.298418e+02
2.284352e+02
1.023851e+02
2.373467e+02
1.112967e+02
4.658874e+02
2.292371e+02
4.762869e+02
2.396365e+02
2.384720e+02
1.102887e+02
2.486826e+02
1.204993e+02
4.761019e+02
2.399090e+02
4.863399e+02
2.501470e+02
2.492529e+02
1.197055e+02
2.611508e+02
1.316034e+02
4.849755e+02
2.517580e+02
4.949044e+02
2.616870e+02
2.605402e+02
1.313772e+02
2.747553e+02
1.455923e+02
4.911449e+02
2.657664e+02
5.012850e+02
2.759066e+02
2.713396e+02
1.473131e+02
2.893919e+02
1.653654e+02
4.931235e+02
2.851111e+02
5.054633e+02
2.974508e+02
2.823515e+02
1.759777e+02
3.034628e+02
1.970890e+02
4.997801e+02
3.026794e+02
5.114656e+02
3.143649e+02
2.997487e+02
1.968686e+02
3.140405e+02
2.111604e+02
5.105014e+02
3.152739e+02
5.240571e+02
3.288297e+02
3.140587e+02
2.109756e+02
3.274655e+02
2.243824e+02
5.249779e+02
3.277575e+02
5.398078e+02
3.425874e+02
3.285541e+02
2.235973e+02
3.412208e+02
2.362639e+02
5.418264e+02
3.403794e+02
5.573814e+02
3.559343e+02
3.429340e+02
2.350858e+02
3.548752e+02
2.470270e+02
5.600655e+02
3.530197e+02
5.758740e+02
3.688283e+02
3.569744e+02
2.455976e+02
3.681807e+02
2.568039e+02
5.789466e+02
3.654885e+02
5.946063e+02
3.811481e+02
3.705064e+02
2.552262e+02
3.809564e+02
2.656762e+02
5.978711e+02
3.775912e+02
6.130420e+02
3.927621e+02
3.833846e+02
2.640326e+02
3.930504e+02
2.736984e+02
6.163504e+02
3.891510e+02
6.307486e+02
4.035492e+02
3.954824e+02
2.720555e+02
4.043332e+02
2.809064e+02
6.339833e+02
4.000144e+02
6.473739e+02
4.134050e+02
4.066897e+02
2.793179e+02
4.146950e+02
2.873232e+02
6.504408e+02
4.100517e+02
6.626313e+02
4.222421e+02
4.169127e+02
2.858317e+02
4.240438e+02
2.929628e+02
6.654544e+02
4.191550e+02
6.762887e+02
4.299893e+02
4.260725e+02
2.916017e+02
4.323038e+02
2.978329e+02
6.788070e+02
4.272359e+02
6.881602e+02
4.365890e+02
4.341041e+02
2.966278e+02
4.394132e+02
3.019369e+02
6.903250e+02
4.342227e+02
6.980987e+02
4.419965e+02
4.409544e+02
3.009076e+02
4.453228e+02
3.052760e+02
6.998723e+02
4.400585e+02
7.059911e+02
4.461773e+02
4.465812e+02
3.044370e+02
4.499939e+02
3.078498e+02
7.073448e+02
4.446986e+02
7.117532e+02
4.491069e+02
4.509520e+02
3.072121e+02
4.533977e+02
3.096577e+02
7.126666e+02
4.481094e+02
7.153264e+02
4.507692e+02
4.540430e+02
3.092287e+02
4.555136e+02
3.106993e+02
7.157863e+02
4.502670e+02
7.166753e+02
4.511560e+02
4.558382e+02
3.104836e+02
4.563289e+02
3.109743e+02
</DataArray>
<DataArray type="Float32" Name="V2" format="ascii">
4.191070e-01
4.427856e-01
4.199673e-01
4.436320e-01
4.427856e-01
4.706250e-01
4.436320e-01
4.714610e-01
4.199673e-01
4.436320e-01
4.225351e-01
4.461715e-01
4.436320e-01
4.714610e-01
4.461715e-01
4.739676e-01
4.225351e-01
4.461715e-01
4.268105e-01
4.504001e-01
4.461715e-01
4.739676e-01
4.504001e-01
4.781413e-01
4.268105e-01
4.504001e-01
4.327875e-01
4.563116e-01
4.504001e-01
4.781413e-01
4.563116e-01
4.839762e-01
4.327875e-01
4.563116e-01
4.404576e-01
4.638976e-01
4.563116e-01
4.839762e-01
4.638976e-01
4.914639e-01
4.404576e-01
4.638976e-01
4.498099e-01
4.731474e-01
4.638976e-01
4.914639e-01
4.731474e-01
5.005937e-01
4.498099e-01
4.731474e-01
4.608309e-01
4.840476e-01
4.731474e-01
5.005937e-01
4.840476e-01
5.113526e-01
4.608309e-01
4.840476e-01
4.735049e-01
4.965827e-01
4.840476e-01
5.113526e-01
4.965827e-01
5.237253e-01
4.735049e-01
4.965827e-01
4.878137e-01
5.107347e-01
4.965827e-01
5.237253e-01
5.107347e-01
5.376938e-01
4.878137e-01
5.107347e-01
5.037368e-01
5.264834e-01
5.107347e-01
5.376938e-01
5.264834e-01
5.532384e-01
5.037368e-01
5.264834e-01
5.212513e-01
5.438060e-01
5.264834e-01
5.532384e-01
5.438060e-01
5.703365e-01
5.212513e-01
5.438060e-01
5.403320e-01
5.626777e-01
5.438060e-01
5.703365e-01
5.626777e-01
5.889637e-01
5.403320e-01
5.626777e-01
5.609514e-01
5.830713e-01
5.626777e-01
5.889637e-01
5.830713e-01
6.090930e-01
5.609514e-01
5.830713e-01
5.830796e-01
6.049572e-01
5.830713e-01
6.090930e-01
6.049572e-01
6.306953e-01
5.830796e-01
6.049572e-01
6.066846e-01
6.283039e-01
6.049572e-01
6.306953e-01
6.283039e-01
6.537395e-01
6.066846e-01
6.283039e-01
6.317320e-01
6.530772e-01
6.283039e-01
6.537395e-01
6.530772e-01
6.781919e-01
6.317320e-01
6.530772e-01
6.581855e-01
6.792414e-01
6.530772e-01
6.781919e-01
6.792414e-01
7.040171e-01
6.581855e-01
6.792414e-01
6.860064e-01
7.067580e-01
6.792414e-01
7.040171e-01
7.067580e-01
7.311774e-01
6.860064e-01
7.067580e-01
7.151538e-01
7.355868e-01
7.067580e-01
7.311774e-01
7.355868e-01
7.596329e-01
7.151538e-01
7.355868e-01
7.455850e-01
7.656856e-01
7.355868e-01
7.596329e-01
7.656856e-01
7.893420e-01
7.455850e-01
7.656856e-01
7.772550e-01
7.970098e-01
7.656856e-01
7.893420e-01
7.970098e-01
8.202609e-01
7.772550e-01
7.970098e-01
8.101168e-01
8.295133e-01
7.970098e-01
8.202609e-01
8.295133e-01
8.523438e-01
8.101168e-01
8.295133e-01
8.441215e-01
8.631476e-01
8.295133e-01
8.523438e-01
8.631476e-01
8.855433e-01
8.441215e-01
8.631476e-01
8.792183e-01
8.978628e-01
8.631476e-01
8.855433e-01
8.978628e-01
9.198101e-01
8.792183e-01
8.978628e-01
9.153544e-01
9.336067e-01
8.978628e-01
9.198101e-01
9.336067e-01
9.550929e-01
9.153544e-01
9.336067e-01
9.524751e-01
9.703258e-01
9.336067e-01
9.550929e-01
9.703258e-01
9.913391e-01
9.524751e-01
9.703258e-01
9.905239e-01
1.007965e+00
9.703258e-01
9.913391e-01
1.007965e+00
1.028494e+00
9.905239e-01
1.007965e+00
1.029443e+00
1.046466e+00
1.007965e+00
1.028494e+00
1.046466e+00
1.066502e+00
1.029443e+00
1.046466e+00
1.069171e+00
1.085771e+00
1.046466e+00
1.066502e+00
1.085771e+00
1.105307e+00
1.069171e+00
1.085771e+00
1.109647e+00
1.125820e+00
1.085771e+00
1.105307e+00
1.125820e+00
1.144848e+00
1.109647e+00
1.125820e+00
1.150808e+00
1.166552e+00
1.125820e+00
1.144848e+00
1.166552e+00
1.185068e+00
1.150808e+00
1.166552e+00
1.192587e+00
1.207903e+00
1.166552e+00
1.185068e+00
1.207903e+00
1.225905e+00
1.192587e+00
1.207903e+00
1.234917e+00
1.249809e+00
1.207903e+00
1.225905e+00
1.249809e+00
1.267298e+00
1.234917e+00
1.249809e+00
1.277728e+00
1.292205e+00
1.249809e+00
1.267298e+00
1.292205e+00
1.309187e+00
1.277728e+00
1.292205e+00
1.320950e+00
1.335025e+00
1.292205e+00
1.309187e+00
1.335025e+00
1.351509e+00
1.320950e+00
1.335025e+00
1.364508e+00
1.378201e+00
1.335025e+00
1.351509e+00
1.378201e+00
1.394204e+00
1.364508e+00
1.378201e+00
1.408325e+00
1.421666e+00
1.378201e+00
1.394204e+00
1.421666e+00
1.437212e+00
1.408325e+00
1.421666e+00
1.452321e+00
1.465352e+00
1.421666e+00
1.437212e+00
1.465352e+00
1.480477e+00
1.452321e+00
1.465352e+00
1.496413e+00
1.509188e+00
1.465352e+00
1.480477e+00
1.509188e+00
1.523943e+00
1.496413e+00
1.509188e+00
1.540511e+00
1.553106e+00
1.509188e+00
1.523943e+00
1.553106e+00
1.567561e+00
1.540511e+00
1.553106e+00
1.584521e+00
1.597034e+00
1.553106e+00
1.567561e+00
1.597034e+00
1.611289e+00
1.584521e+00
1.597034e+00
1.628338e+00
1.640898e+00
1.597034e+00
1.611289e+00
1.640898e+00
1.655098e+00
1.628338e+00
1.640898e+00
1.671841e+00
1.684617e+00
1.640898e+00
1.655098e+00
1.684617e+00
1.698976e+00
1.671841e+00
1.684617e+00
1.714873e+00
1.728082e+00
1.684617e+00
1.698976e+00
1.728082e+00
1.742932e+00
1.714873e+00
1.728082e+00
1.757189e+00
1.771053e+00
1.728082e+00
1.742932e+00
1.771053e+00
1.786851e+00
1.757189e+00
1.771053e+00
1.798215e+00
1.812465e+00
1.771053e+00
1.786851e+00
1.812465e+00
1.828486e+00
1.798215e+00
1.812465e+00
1.836569e+00
1.851047e+00
1.812465e+00
1.828486e+00
1.851047e+00
1.867360e+00
1.836569e+00
1.851047e+00
1.872119e+00
1.887062e+00
1.851047e+00
1.867360e+00
1.887062e+00
1.903883e+00
1.872119e+00
1.887062e+00
1.904928e+00
1.920443e+00
1.887062e+00
1.903883e+00
1.920443e+00
1.937864e+00
1.904928e+00
1.920443e+00
1.935061e+00
1.951171e+00
1.920443e+00
1.937864e+00
1.951171e+00
1.969220e+00
1.935061e+00
1.951171e+00
1.962584e+00
1.979267e+00
1.951171e+00
1.969220e+00
1.979267e+00
1.997928e+00
1.962584e+00
1.979267e+00
1.987568e+00
2.004780e+00
1.979267e+00
1.997928e+00
2.004780e+00
2.024011e+00
1.987568e+00
2.004780e+00
2.010088e+00
2.027770e+00
2.004780e+00
2.024011e+00
2.027770e+00
2.047517e+00
2.010088e+00
2.027770e+00
2.030215e+00
2.048308e+00
2.027770e+00
2.047517e+00
2.048308e+00
2.068509e+00
2.030215e+00
2.048308e+00
2.048021e+00
2.066464e+00
2.048308e+00
2.068509e+00
2.066464e+00
2.087057e+00
2.048021e+00
2.066464e+00
2.063570e+00
2.082306e+00
2.066464e+00
2.087057e+00
2.082306e+00
2.103232e+00
2.063570e+00
2.082306e+00
2.076921e+00
2.095900e+00
2.082306e+00
2.103232e+00
2.095900e+00
2.117101e+00
2.076921e+00
2.095900e+00
2.088128e+00
2.107302e+00
2.095900e+00
2.117101e+00
2.107302e+00
2.128727e+00
2.088128e+00
2.107302e+00
2.097235e+00
2.116562e+00
2.107302e+00
2.128727e+00
2.116562e+00
2.138163e+00
2.097235e+00
2.116562e+00
2.104280e+00
2.123720e+00
2.116562e+00
2.138163e+00
2.123720e+00
2.145454e+00
2.104280e+00
2.123720e+00
2.109291e+00
2.128810e+00
2.123720e+00
2.145454e+00
2.128810e+00
2.150637e+00
2.109291e+00
2.128810e+00
2.112289e+00
2.131855e+00
2.128810e+00
2.150637e+00
2.131855e+00
2.153736e+00
2.112289e+00
2.131855e+00
2.113287e+00
2.132869e+00
2.131855e+00
2.153736e+00
2.132869e+00
2.154767e+00
</DataArray>
<DataArray type="Float32" Name="V3" format="ascii">
0.000000e+00
0.000000e+00
2.894045e-02
2.834734e-02
0.000000e+00
0.000000e+00
2.834734e-02
2.765249e-02
2.894045e-02
2.834734e-02
5.781225e-02
5.662663e-02
2.834734e-02
2.765249e-02
5.662663e-02
5.523760e-02
5.781225e-02
5.662663e-02
8.654641e-02
8.476963e-02
5.662663e-02
5.523760e-02
8.476963e-02
8.268802e-02
8.654641e-02
8.476963e-02
1.150743e-01
1.127084e-01
8.476963e-02
8.268802e-02
1.127084e-01
1.099366e-01
1.150743e-01
1.127084e-01
1.433276e-01
1.403752e-01
1.127084e-01
1.099366e-01
1.403752e-01
1.369163e-01
1.433276e-01
1.403752e-01
1.712382e-01
1.677028e-01
1.403752e-01
1.369163e-01
1.677028e-01
1.635606e-01
1.712382e-01
1.677028e-01
1.987385e-01
1.946239e-01
1.677028e-01
1.635606e-01
1.946239e-01
1.898033e-01
1.987385e-01
1.946239e-01
2.257612e-01
2.210722e-01
1.946239e-01
1.898033e-01
2.210722e-01
2.155784e-01
2.257612e-01
2.210722e-01
2.522397e-01
2.469816e-01
2.210722e-01
2.155784e-01
2.469816e-01
2.408209e-01
2.522397e-01
2.469816e-01
2.781080e-01
2.722867e-01
2.469816e-01
2.408209e-01
2.722867e-01
2.654660e-01
2.781080e-01
2.722867e-01
3.033008e-01
2.969229e-01
2.722867e-01
2.654660e-01
2.969229e-01
2.894498e-01
3.033008e-01
2.969229e-01
3.277535e-01
3.208261e-01
2.969229e-01
2.894498e-01
3.208261e-01
3.127091e-01
3.277535e-01
3.208261e-01
3.514025e-01
3.439335e-01
3.208261e-01
3.127091e-01
3.439335e-01
3.351815e-01
3.514025e-01
3.439335e-01
3.741851e-01
3.661827e-01
3.439335e-01
3.351815e-01
3.661827e-01
3.568056e-01
3.741851e-01
3.661827e-01
3.960394e-01
3.875127e-01
3.661827e-01
3.568056e-01
3.875127e-01
3.775209e-01
3.960394e-01
3.875127e-01
4.169048e-01
4.078633e-01
3.875127e-01
3.775209e-01
4.078633e-01
3.972679e-01
4.169048e-01
4.078633e-01
4.367219e-01
4.271756e-01
4.078633e-01
3.972679e-01
4.271756e-01
4.159885e-01
4.367219e-01
4.271756e-01
4.554322e-01
4.453919e-01
4.271756e-01
4.159885e-01
4.453919e-01
4.336254e-01
4.554322e-01
4.453919e-01
4.729789e-01
4.624558e-01
4.453919e-01
4.336254e-01
4.624558e-01
4.501229e-01
4.729789e-01
4.624558e-01
4.893063e-01
4.783120e-01
4.624558e-01
4.501229e-01
4.783120e-01
4.654266e-01
4.893063e-01
4.783120e-01
5.043601e-01
4.929070e-01
4.783120e-01
4.654266e-01
4.929070e-01
4.794834e-01
5.043601e-01
4.929070e-01
5.180877e-01
5.061886e-01
4.929070e-01
4.794834e-01
5.061886e-01
4.922417e-01
5.180877e-01
5.061886e-01
5.304378e-01
5.181061e-01
5.061886e-01
4.922417e-01
5.181061e-01
5.036516e-01
5.304378e-01
5.181061e-01
5.413610e-01
5.286105e-01
5.181061e-01
5.036516e-01
5.286105e-01
5.136648e-01
5.413610e-01
5.286105e-01
5.508093e-01
5.376546e-01
5.286105e-01
5.136648e-01
5.376546e-01
5.222347e-01
5.508093e-01
5.376546e-01
5.587366e-01
5.451927e-01
5.376546e-01
5.222347e-01
5.451927e-01
5.293163e-01
5.587366e-01
5.451927e-01
5.650985e-01
5.511812e-01
5.451927e-01
5.293163e-01
5.511812e-01
5.348670e-01
5.650985e-01
5.511812e-01
5.698524e-01
5.555782e-01
5.511812e-01
5.348670e-01
5.555782e-01
5.388455e-01
5.698524e-01
5.555782e-01
5.729576e-01
5.583437e-01
5.555782e-01
5.388455e-01
5.583437e-01
5.412131e-01
5.729576e-01
5.583437e-01
5.743753e-01
5.594398e-01
5.583437e-01
5.412131e-01
5.594398e-01
5.419330e-01
5.743753e-01
5.594398e-01
5.740686e-01
5.588307e-01
5.594398e-01
5.419330e-01
5.588307e-01
5.409706e-01
5.740686e-01
5.588307e-01
5.720024e-01
5.564824e-01
5.588307e-01
5.409706e-01
5.564824e-01
5.382939e-01
5.720024e-01
5.564824e-01
5.681438e-01
5.523634e-01
5.564824e-01
5.382939e-01
5.523634e-01
5.338729e-01
5.681438e-01
5.523634e-01
5.624615e-01
5.464442e-01
5.523634e-01
5.338729e-01
5.464442e-01
5.276808e-01
5.624615e-01
5.464442e-01
5.549262e-01
5.386974e-01
5.464442e-01
5.276808e-01
5.386974e-01
5.196931e-01
5.549262e-01
5.386974e-01
5.455105e-01
5.290980e-01
5.386974e-01
5.196931e-01
5.290980e-01
5.098885e-01
5.455105e-01
5.290980e-01
5.341888e-01
5.176233e-01
5.290980e-01
5.098885e-01
5.176233e-01
4.982487e-01
5.341888e-01
5.176233e-01
5.209370e-01
5.042526e-01
5.176233e-01
4.982487e-01
5.042526e-01
4.847587e-01
5.209370e-01
5.042526e-01
5.057328e-01
4.889675e-01
5.042526e-01
4.847587e-01
4.889675e-01
4.694074e-01
5.057328e-01
4.889675e-01
4.885553e-01
4.717517e-01
4.889675e-01
4.694074e-01
4.717517e-01
4.521876e-01
4.885553e-01
4.717517e-01
4.693853e-01
4.525908e-01
4.717517e-01
4.521876e-01
4.525908e-01
4.330972e-01
4.693853e-01
4.525908e-01
4.482057e-01
4.314730e-01
4.525908e-01
4.330972e-01
4.314730e-01
4.121402e-01
4.482057e-01
4.314730e-01
4.250038e-01
4.083908e-01
4.314730e-01
4.121402e-01
4.083908e-01
3.893286e-01
4.250038e-01
4.083908e-01
3.997822e-01
3.833507e-01
4.083908e-01
3.893286e-01
3.833507e-01
3.646809e-01
3.997822e-01
3.833507e-01
3.726168e-01
3.564193e-01
3.833507e-01
3.646809e-01
3.564193e-01
3.381475e-01
3.726168e-01
3.564193e-01
3.444494e-01
3.285880e-01
3.564193e-01
3.381475e-01
3.285880e-01
3.104137e-01
3.444494e-01
3.285880e-01
3.178236e-01
3.026302e-01
3.285880e-01
3.104137e-01
3.026302e-01
2.853912e-01
3.178236e-01
3.026302e-01
2.928508e-01
2.784230e-01
3.026302e-01
2.853912e-01
2.784230e-01
2.621973e-01
2.928508e-01
2.784230e-01
2.692725e-01
2.557033e-01
2.784230e-01
2.621973e-01
2.557033e-01
2.405387e-01
2.692725e-01
2.557033e-01
2.468531e-01
2.342153e-01
2.557033e-01
2.405387e-01
2.342153e-01
2.201506e-01
2.468531e-01
2.342153e-01
2.253883e-01
2.137322e-01
2.342153e-01
2.201506e-01
2.137322e-01
2.007956e-01
2.253883e-01
2.137322e-01
2.047036e-01
1.940589e-01
2.137322e-01
2.007956e-01
1.940589e-01
1.822662e-01
2.047036e-01
1.940589e-01
1.846517e-01
1.750316e-01
1.940589e-01
1.822662e-01
1.750316e-01
1.643866e-01
1.846517e-01
1.750316e-01
1.651095e-01
1.565144e-01
1.750316e-01
1.643866e-01
1.565144e-01
1.470109e-01
1.651095e-01
1.565144e-01
1.459749e-01
1.383964e-01
1.565144e-01
1.470109e-01
1.383964e-01
1.300207e-01
1.459749e-01
1.383964e-01
1.271637e-01
1.205874e-01
1.383964e-01
1.300207e-01
1.205874e-01
1.133213e-01
1.271637e-01
1.205874e-01
1.086066e-01
1.030150e-01
1.205874e-01
1.133213e-01
1.030150e-01
9.683777e-02
1.086066e-01
1.030150e-01
9.024664e-02
8.562143e-02
1.030150e-01
9.683777e-02
8.562143e-02
8.051208e-02
9.024664e-02
8.562143e-02
7.203677e-02
6.836050e-02
8.562143e-02
8.051208e-02
6.836050e-02
6.429942e-02
7.203677e-02
6.836050e-02
5.393802e-02
5.119535e-02
6.836050e-02
6.429942e-02
5.119535e-02
4.816551e-02
5.393802e-02
5.119535e-02
3.591747e-02
3.409614e-02
5.119535e-02
4.816551e-02
3.409614e-02
3.208406e-02
3.591747e-02
3.409614e-02
1.794665e-02
1.703817e-02
3.409614e-02
3.208406e-02
1.703817e-02
1.603451e-02
1.794665e-02
1.703817e-02
0.000000e+00
0.000000e+00
1.703817e-02
1.603451e-02
0.000000e+00
0.000000e+00
</DataArray>
<DataArray type="Float32" Name="V4" format="ascii">
8.500000e-01
9.250000e-01
8.500000e-01
9.250000e-01
9.250000e-01
1.000000e+00