<?xml version="1.0"?>
<VTKFile type="UnstructuredGrid" version="0.1" byte_order="LittleEndian" compressor="vtkZLibDataCompressor">
<UnstructuredGrid>
<Piece NumberOfPoints="504" NumberOfCells="126">
<Points>
<DataArray type="Float32" NumberOfComponents="3" format="ascii">
0.000000e+00 4.504277e-01 0.000000e+00
0.000000e+00 4.783775e-01 0.000000e+00
3.626581e-02 4.504358e-01 0.000000e+00
3.625933e-02 4.783800e-01 0.000000e+00
0.000000e+00 4.783775e-01 0.000000e+00
0.000000e+00 5.112500e-01 0.000000e+00
3.625933e-02 4.783800e-01 0.000000e+00
3.625590e-02 5.112500e-01 0.000000e+00
3.626581e-02 4.504358e-01 0.000000e+00
3.625933e-02 4.783800e-01 0.000000e+00
7.253064e-02 4.504508e-01 0.000000e+00
7.251759e-02 4.783882e-01 0.000000e+00
3.625933e-02 4.783800e-01 0.000000e+00
3.625590e-02 5.112500e-01 0.000000e+00
7.251759e-02 4.783882e-01 0.000000e+00
7.251065e-02 5.112500e-01 0.000000e+00
7.253064e-02 4.504508e-01 0.000000e+00
7.251759e-02 4.783882e-01 0.000000e+00
1.087931e-01 4.504759e-01 0.000000e+00
1.087735e-01 4.784018e-01 0.000000e+00
7.251759e-02 4.783882e-01 0.000000e+00
7.251065e-02 5.112500e-01 0.000000e+00
1.087735e-01 4.784018e-01 0.000000e+00
1.087631e-01 5.112500e-01 0.000000e+00
1.087931e-01 4.504759e-01 0.000000e+00
1.087735e-01 4.784018e-01 0.000000e+00
1.450520e-01 4.505109e-01 0.000000e+00
1.450260e-01 4.784207e-01 0.000000e+00
1.087735e-01 4.784018e-01 0.000000e+00
1.087631e-01 5.112500e-01 0.000000e+00
1.450260e-01 4.784207e-01 0.000000e+00
1.450122e-01 5.112500e-01 0.000000e+00
1.450520e-01 4.505109e-01 0.000000e+00
1.450260e-01 4.784207e-01 0.000000e+00
1.813062e-01 4.505560e-01 0.000000e+00
1.812739e-01 4.784451e-01 0.000000e+00
1.450260e-01 4.784207e-01 0.000000e+00
1.450122e-01 5.112500e-01 0.000000e+00
1.812739e-01 4.784451e-01 0.000000e+00
1.812567e-01 5.112500e-01 0.000000e+00
1.813062e-01 4.505560e-01 0.000000e+00
1.812739e-01 4.784451e-01 0.000000e+00
2.175546e-01 4.506109e-01 0.000000e+00
2.175159e-01 4.784749e-01 0.000000e+00
1.812739e-01 4.784451e-01 0.000000e+00
1.812567e-01 5.112500e-01 0.000000e+00
2.175159e-01 4.784749e-01 0.000000e+00
2.174954e-01 5.112500e-01 0.000000e+00
2.175546e-01 4.506109e-01 0.000000e+00
2.175159e-01 4.784749e-01 0.000000e+00
2.537958e-01 4.506758e-01 0.000000e+00
2.537509e-01 4.785101e-01 0.000000e+00
2.175159e-01 4.784749e-01 0.000000e+00
2.174954e-01 5.112500e-01 0.000000e+00
2.537509e-01 4.785101e-01 0.000000e+00
2.537273e-01 5.112500e-01 0.000000e+00
2.537958e-01 4.506758e-01 0.000000e+00
2.537509e-01 4.785101e-01 0.000000e+00
2.900286e-01 4.507505e-01 0.000000e+00
2.899777e-01 4.785505e-01 0.000000e+00
2.537509e-01 4.785101e-01 0.000000e+00
2.537273e-01 5.112500e-01 0.000000e+00
2.899777e-01 4.785505e-01 0.000000e+00
2.899510e-01 5.112500e-01 0.000000e+00
2.900286e-01 4.507505e-01 0.000000e+00
2.899777e-01 4.785505e-01 0.000000e+00
3.262518e-01 4.508351e-01 0.000000e+00
3.261951e-01 4.785963e-01 0.000000e+00
2.899777e-01 4.785505e-01 0.000000e+00
2.899510e-01 5.112500e-01 0.000000e+00
3.261951e-01 4.785963e-01 0.000000e+00
3.261654e-01 5.112500e-01 0.000000e+00
3.262518e-01 4.508351e-01 0.000000e+00
3.261951e-01 4.785963e-01 0.000000e+00
3.624642e-01 4.509293e-01 0.000000e+00
3.624017e-01 4.786474e-01 0.000000e+00
3.261951e-01 4.785963e-01 0.000000e+00
3.261654e-01 5.112500e-01 0.000000e+00
3.624017e-01 4.786474e-01 0.000000e+00
3.623693e-01 5.112500e-01 0.000000e+00
3.624642e-01 4.509293e-01 0.000000e+00
3.624017e-01 4.786474e-01 0.000000e+00
3.986643e-01 4.510332e-01 0.000000e+00
3.985964e-01 4.787037e-01 0.000000e+00
3.624017e-01 4.786474e-01 0.000000e+00
3.623693e-01 5.112500e-01 0.000000e+00
3.985964e-01 4.787037e-01 0.000000e+00
3.985614e-01 5.112500e-01 0.000000e+00
3.986643e-01 4.510332e-01 0.000000e+00
3.985964e-01 4.787037e-01 0.000000e+00
4.348509e-01 4.511467e-01 0.000000e+00
4.347778e-01 4.787652e-01 0.000000e+00
3.985964e-01 4.787037e-01 0.000000e+00
3.985614e-01 5.112500e-01 0.000000e+00
4.347778e-01 4.787652e-01 0.000000e+00
4.347404e-01 5.112500e-01 0.000000e+00
4.348509e-01 4.511467e-01 0.000000e+00
4.347778e-01 4.787652e-01 0.000000e+00
4.710225e-01 4.512697e-01 0.000000e+00
4.709445e-01 4.788319e-01 0.000000e+00
4.347778e-01 4.787652e-01 0.000000e+00
4.347404e-01 5.112500e-01 0.000000e+00
4.709445e-01 4.788319e-01 0.000000e+00
4.709051e-01 5.112500e-01 0.000000e+00
4.710225e-01 4.512697e-01 0.000000e+00
4.709445e-01 4.788319e-01 0.000000e+00
5.071778e-01 4.514021e-01 0.000000e+00
5.070953e-01 4.789037e-01 0.000000e+00
4.709445e-01 4.788319e-01 0.000000e+00
4.709051e-01 5.112500e-01 0.000000e+00
5.070953e-01 4.789037e-01 0.000000e+00
5.070542e-01 5.112500e-01 0.000000e+00
5.071778e-01 4.514021e-01 0.000000e+00
5.070953e-01 4.789037e-01 0.000000e+00
5.433152e-01 4.515438e-01 0.000000e+00
5.432287e-01 4.789806e-01 0.000000e+00
5.070953e-01 4.789037e-01 0.000000e+00
5.070542e-01 5.112500e-01 0.000000e+00
5.432287e-01 4.789806e-01 0.000000e+00
5.431863e-01 5.112500e-01 0.000000e+00
5.433152e-01 4.515438e-01 0.000000e+00
5.432287e-01 4.789806e-01 0.000000e+00
5.794332e-01 4.516947e-01 0.000000e+00
5.793433e-01 4.790626e-01 0.000000e+00
5.432287e-01 4.789806e-01 0.000000e+00
5.431863e-01 5.112500e-01 0.000000e+00
5.793433e-01 4.790626e-01 0.000000e+00
5.793000e-01 5.112500e-01 0.000000e+00
5.794332e-01 4.516947e-01 0.000000e+00
5.793433e-01 4.790626e-01 0.000000e+00
6.155303e-01 4.518547e-01 0.000000e+00
6.154375e-01 4.791495e-01 0.000000e+00
5.793433e-01 4.790626e-01 0.000000e+00
5.793000e-01 5.112500e-01 0.000000e+00
6.154375e-01 4.791495e-01 0.000000e+00
6.153941e-01 5.112500e-01 0.000000e+00
6.155303e-01 4.518547e-01 0.000000e+00
6.154375e-01 4.791495e-01 0.000000e+00
6.516047e-01 4.520237e-01 0.000000e+00
6.515099e-01 4.792414e-01 0.000000e+00
6.154375e-01 4.791495e-01 0.000000e+00
6.153941e-01 5.112500e-01 0.000000e+00
6.515099e-01 4.792414e-01 0.000000e+00
6.514671e-01 5.112500e-01 0.000000e+00
6.516047e-01 4.520237e-01 0.000000e+00
6.515099e-01 4.792414e-01 0.000000e+00
6.876547e-01 4.522016e-01 0.000000e+00
6.875589e-01 4.793383e-01 0.000000e+00
6.515099e-01 4.792414e-01 0.000000e+00
6.514671e-01 5.112500e-01 0.000000e+00
6.875589e-01 4.793383e-01 0.000000e+00
6.875177e-01 5.112500e-01 0.000000e+00
6.876547e-01 4.522016e-01 0.000000e+00
6.875589e-01 4.793383e-01 0.000000e+00
7.236784e-01 4.523883e-01 0.000000e+00
7.235830e-01 4.794400e-01 0.000000e+00
6.875589e-01 4.793383e-01 0.000000e+00
6.875177e-01 5.112500e-01 0.000000e+00
7.235830e-01 4.794400e-01 0.000000e+00
7.235445e-01 5.112500e-01 0.000000e+00
7.236784e-01 4.523883e-01 0.000000e+00
7.235830e-01 4.794400e-01 0.000000e+00
7.596739e-01 4.525837e-01 0.000000e+00
7.595803e-01 4.795466e-01 0.000000e+00
7.235830e-01 4.794400e-01 0.000000e+00
7.235445e-01 5.112500e-01 0.000000e+00
7.595803e-01 4.795466e-01 0.000000e+00
7.595461e-01 5.112500e-01 0.000000e+00
7.596739e-01 4.525837e-01 0.000000e+00
7.595803e-01 4.795466e-01 0.000000e+00
7.956391e-01 4.527876e-01 0.000000e+00
7.955493e-01 4.796581e-01 0.000000e+00
7.595803e-01 4.795466e-01 0.000000e+00
7.595461e-01 5.112500e-01 0.000000e+00
7.955493e-01 4.796581e-01 0.000000e+00
7.955213e-01 5.112500e-01 0.000000e+00
7.956391e-01 4.527876e-01 0.000000e+00
7.955493e-01 4.796581e-01 0.000000e+00
8.315718e-01 4.529999e-01 0.000000e+00
8.314883e-01 4.797746e-01 0.000000e+00
7.955493e-01 4.796581e-01 0.000000e+00
7.955213e-01 5.112500e-01 0.000000e+00
8.314883e-01 4.797746e-01 0.000000e+00
8.314689e-01 5.112500e-01 0.000000e+00
8.315718e-01 4.529999e-01 0.000000e+00
8.314883e-01 4.797746e-01 0.000000e+00
8.674695e-01 4.532207e-01 0.000000e+00
8.673954e-01 4.798959e-01 0.000000e+00
8.314883e-01 4.797746e-01 0.000000e+00
8.314689e-01 5.112500e-01 0.000000e+00
8.673954e-01 4.798959e-01 0.000000e+00
8.673876e-01 5.112500e-01 0.000000e+00
8.674695e-01 4.532207e-01 0.000000e+00
8.673954e-01 4.798959e-01 0.000000e+00
9.033296e-01 4.534497e-01 0.000000e+00
9.032688e-01 4.800223e-01 0.000000e+00
8.673954e-01 4.798959e-01 0.000000e+00
8.673876e-01 5.112500e-01 0.000000e+00
9.032688e-01 4.800223e-01 0.000000e+00
9.032766e-01 5.112500e-01 0.000000e+00
9.033296e-01 4.534497e-01 0.000000e+00
9.032688e-01 4.800223e-01 0.000000e+00
9.391491e-01 4.536869e-01 0.000000e+00
9.391068e-01 4.801538e-01 0.000000e+00
9.032688e-01 4.800223e-01 0.000000e+00
9.032766e-01 5.112500e-01 0.000000e+00
9.391068e-01 4.801538e-01 0.000000e+00
9.391352e-01 5.112500e-01 0.000000e+00
9.391491e-01 4.536869e-01 0.000000e+00
9.391068e-01 4.801538e-01 0.000000e+00
9.749248e-01 4.539322e-01 0.000000e+00
9.749076e-01 4.802906e-01 0.000000e+00
9.391068e-01 4.801538e-01 0.000000e+00
9.391352e-01 5.112500e-01 0.000000e+00
9.749076e-01 4.802906e-01 0.000000e+00
9.749629e-01 5.112500e-01 0.000000e+00
9.749248e-01 4.539322e-01 0.000000e+00
9.749076e-01 4.802906e-01 0.000000e+00
1.010653e+00 4.541858e-01 0.000000e+00
1.010669e+00 4.804329e-01 0.000000e+00
9.749076e-01 4.802906e-01 0.000000e+00
9.749629e-01 5.112500e-01 0.000000e+00
1.010669e+00 4.804329e-01 0.000000e+00
1.010760e+00 5.112500e-01 0.000000e+00
1.010653e+00 4.541858e-01 0.000000e+00
1.010669e+00 4.804329e-01 0.000000e+00
1.046329e+00 4.544475e-01 0.000000e+00
1.046390e+00 4.805812e-01 0.000000e+00
1.010669e+00 4.804329e-01 0.000000e+00
1.010760e+00 5.112500e-01 0.000000e+00
1.046390e+00 4.805812e-01 0.000000e+00
1.046526e+00 5.112500e-01 0.000000e+00
1.046329e+00 4.544475e-01 0.000000e+00
1.046390e+00 4.805812e-01 0.000000e+00
1.081949e+00 4.547174e-01 0.000000e+00
1.082068e+00 4.807359e-01 0.000000e+00
1.046390e+00 4.805812e-01 0.000000e+00
1.046526e+00 5.112500e-01 0.000000e+00
1.082068e+00 4.807359e-01 0.000000e+00
1.082264e+00 5.112500e-01 0.000000e+00
1.081949e+00 4.547174e-01 0.000000e+00
1.082068e+00 4.807359e-01 0.000000e+00
1.117507e+00 4.549957e-01 0.000000e+00
1.117702e+00 4.808975e-01 0.000000e+00
1.082068e+00 4.807359e-01 0.000000e+00
1.082264e+00 5.112500e-01 0.000000e+00
1.117702e+00 4.808975e-01 0.000000e+00
1.117975e+00 5.112500e-01 0.000000e+00
1.117507e+00 4.549957e-01 0.000000e+00
[...]
<PointData>
<DataArray type="Float32" Name="V1" format="ascii">
1.281911e+02
4.779992e+01
1.282395e+02
4.784833e+01
4.986472e+01
1.052756e+01
4.988532e+01
1.054816e+01
1.282593e+02
4.781923e+01
1.283795e+02
4.793949e+01
4.990275e+01
1.054006e+01
4.995878e+01
1.059609e+01
1.284272e+02
4.788711e+01
1.286257e+02
4.808563e+01
4.999210e+01
1.057813e+01
5.008803e+01
1.067405e+01
1.286989e+02
4.800851e+01
1.289765e+02
4.828610e+01
5.013664e+01
1.064561e+01
5.027231e+01
1.078127e+01
1.290751e+02
4.818375e+01
1.294327e+02
4.854134e+01
5.033659e+01
1.074253e+01
5.051219e+01
1.091812e+01
1.295568e+02
4.841336e+01
1.299954e+02
4.885195e+01
5.059242e+01
1.086909e+01
5.080835e+01
1.108502e+01
1.301451e+02
4.869796e+01
1.306659e+02
4.921874e+01
5.090477e+01
1.102563e+01
5.116159e+01
1.128244e+01
1.308417e+02
4.903835e+01
1.314460e+02
4.964268e+01
5.127449e+01
1.121258e+01
5.157287e+01
1.151096e+01
1.316481e+02
4.943543e+01
1.323375e+02
5.012489e+01
5.170255e+01
1.143048e+01
5.204332e+01
1.177125e+01
1.325664e+02
4.989030e+01
1.333428e+02
5.066668e+01
5.219010e+01
1.167996e+01
5.257422e+01
1.206407e+01
1.335991e+02
5.040420e+01
1.344644e+02
5.126954e+01
5.273849e+01
1.196174e+01
5.316704e+01
1.239030e+01
1.347485e+02
5.097855e+01
1.357051e+02
5.193512e+01
5.334921e+01
1.227667e+01
5.382346e+01
1.275091e+01
1.360177e+02
5.161495e+01
1.370681e+02
5.266530e+01
5.402399e+01
1.262571e+01
5.454533e+01
1.314705e+01
1.374099e+02
5.231522e+01
1.385568e+02
5.346213e+01
5.476472e+01
1.300994e+01
5.533474e+01
1.357995e+01
1.389286e+02
5.308136e+01
1.401752e+02
5.432791e+01
5.557354e+01
1.343060e+01
5.619399e+01
1.405104e+01
1.405777e+02
5.391561e+01
1.419272e+02
5.526515e+01
5.645281e+01
1.388905e+01
5.712567e+01
1.456191e+01
1.423612e+02
5.482045e+01
1.438174e+02
5.627663e+01
5.740514e+01
1.438686e+01
5.813260e+01
1.511432e+01
1.442838e+02
5.579861e+01
1.458506e+02
5.736538e+01
5.843342e+01
1.492577e+01
5.921794e+01
1.571029e+01
1.463502e+02
5.685313e+01
1.480318e+02
5.853475e+01
5.954083e+01
1.550774e+01
6.038516e+01
1.635207e+01
1.485654e+02
5.798733e+01
1.503665e+02
5.978837e+01
6.073089e+01
1.613502e+01
6.163811e+01
1.704224e+01
1.509349e+02
5.920492e+01
1.528603e+02
6.113024e+01
6.200747e+01
1.681013e+01
6.298104e+01
1.778370e+01
1.534642e+02
6.050996e+01
1.555190e+02
6.256473e+01
6.337487e+01
1.753596e+01
6.441871e+01
1.857980e+01
1.561588e+02
6.190696e+01
1.583485e+02
6.409661e+01
6.483781e+01
1.831583e+01
6.595637e+01
1.943439e+01
1.590245e+02
6.340095e+01
1.613547e+02
6.573113e+01
6.640155e+01
1.915358e+01
6.759992e+01
2.035195e+01
1.620668e+02
6.499750e+01
1.645433e+02
6.747402e+01
6.807194e+01
2.005369e+01
6.935600e+01
2.133775e+01
1.652907e+02
6.670286e+01
1.679195e+02
6.933159e+01
6.985552e+01
2.102143e+01
7.123210e+01
2.239801e+01
1.687007e+02
6.852406e+01
1.714874e+02
7.131077e+01
7.175962e+01
2.206307e+01
7.323674e+01
2.354020e+01
1.722998e+02
7.046905e+01
1.752500e+02
7.341921e+01
7.379253e+01
2.318614e+01
7.537971e+01
2.477332e+01
1.760896e+02
7.254690e+01
1.792080e+02
7.566537e+01
7.596367e+01
2.439976e+01
7.767232e+01
2.610841e+01
1.800686e+02
7.476808e+01
1.833592e+02
7.805865e+01
7.828384e+01
2.571514e+01
8.012782e+01
2.755911e+01
1.842318e+02
7.714469e+01
1.876966e+02
8.060950e+01
8.076550e+01
2.714616e+01
8.276182e+01
2.914248e+01
1.885685e+02
7.969096e+01
1.922072e+02
8.332961e+01
8.342315e+01
2.871029e+01
8.559298e+01
3.088011e+01
1.930609e+02
8.242371e+01
1.968692e+02
8.623203e+01
8.627383e+01
3.042967e+01
8.864380e+01
3.279964e+01
1.976804e+02
8.536297e+01
2.016487e+02
8.933132e+01
8.933764e+01
3.233283e+01
9.194170e+01
3.493689e+01
2.023847e+02
8.853274e+01
2.064955e+02
9.264358e+01
9.263829e+01
3.445701e+01
9.552026e+01
3.733898e+01
2.071127e+02
9.196173e+01
2.113373e+02
9.618633e+01
9.620358e+01
3.685170e+01
9.942074e+01
4.006886e+01
2.117789e+02
9.568413e+01
2.160729e+02
9.997820e+01
1.000651e+02
3.958418e+01
1.036934e+02
4.321250e+01
2.162653e+02
9.974040e+01
2.205638e+02
1.040390e+02
1.042555e+02
4.274896e+01
1.083977e+02
4.689114e+01
2.204116e+02
1.041798e+02
2.246249e+02
1.083931e+02
1.087997e+02
4.648561e+01
1.135995e+02
5.128539e+01
2.239973e+02
1.090714e+02
2.280170e+02
1.130912e+02
1.136867e+02
5.101783e+01
1.193620e+02
5.669315e+01
2.266985e+02
1.145543e+02
2.304522e+02
1.183080e+02
1.187903e+02
5.676091e+01
1.257358e+02
6.370635e+01
2.279330e+02
1.210618e+02
2.316647e+02
1.247934e+02
1.237188e+02
6.470962e+01
1.327896e+02
7.378043e+01
2.269314e+02
1.299292e+02
2.316099e+02
1.346077e+02
1.279243e+02
7.888948e+01
1.394296e+02
9.039474e+01
2.274371e+02
1.390981e+02
2.317236e+02
1.433846e+02
1.365248e+02
9.201639e+01
1.435819e+02
9.907345e+01
2.300532e+02
1.450040e+02
2.352434e+02
1.501943e+02
1.431485e+02
9.922443e+01
1.495281e+02
1.056040e+02
2.348808e+02
1.504320e+02
2.408042e+02
1.563554e+02
1.495927e+02
1.055038e+02
1.555443e+02
1.114554e+02
2.412167e+02
1.558623e+02
2.476679e+02
1.623136e+02
1.560227e+02
1.111137e+02
1.616010e+02
1.166920e+02
2.485379e+02
1.613440e+02
2.553011e+02
1.681073e+02
1.623344e+02
1.161842e+02
1.675595e+02
1.214094e+02
2.564620e+02
1.668229e+02
2.633518e+02
1.737127e+02
1.684695e+02
1.207869e+02
1.733548e+02
1.256722e+02
2.646933e+02
1.722271e+02
2.715531e+02
1.790869e+02
1.743768e+02
1.249771e+02
1.789297e+02
1.295299e+02
2.729965e+02
1.774865e+02
2.796962e+02
1.841862e+02
1.800120e+02
1.287968e+02
1.842355e+02
1.330203e+02
2.811813e+02
1.825387e+02
2.876142e+02
1.889716e+02
1.853361e+02
1.322774e+02
1.892309e+02
1.361722e+02
2.890933e+02
1.873312e+02
2.951723e+02
1.934102e+02
1.903164e+02
1.354420e+02
1.938814e+02
1.390071e+02
2.966069e+02
1.918203e+02
3.022617e+02
1.974751e+02
1.949253e+02
1.383073e+02
1.981587e+02
1.415407e+02
3.036207e+02
1.959706e+02
3.087946e+02
2.011445e+02
1.991400e+02
1.408850e+02
2.020396e+02
1.437847e+02
3.100529e+02
1.997534e+02
3.147009e+02
2.044014e+02
2.029422e+02
1.431835e+02
2.055059e+02
1.457472e+02
3.158383e+02
2.031456e+02
3.199248e+02
2.072321e+02
2.063170e+02
1.452085e+02
2.085428e+02
1.474343e+02
3.209250e+02
2.061291e+02
3.244224e+02
2.096265e+02
2.092526e+02
1.469640e+02
2.111388e+02
1.488502e+02
3.252728e+02
2.086896e+02
3.281596e+02
2.115765e+02
2.117399e+02
1.484528e+02
2.132850e+02
1.499979e+02
3.288506e+02
2.108161e+02
3.311109e+02
2.130764e+02
2.137718e+02
1.496766e+02
2.149747e+02
1.508795e+02
3.316350e+02
2.125000e+02
3.332572e+02
2.141222e+02
2.153431e+02
1.506368e+02
2.162029e+02
1.514965e+02
3.336094e+02
2.137352e+02
3.345857e+02
2.147115e+02
2.164500e+02
1.513339e+02
2.169661e+02
1.518500e+02
3.347626e+02
2.145172e+02
3.350885e+02
2.148431e+02
2.170901e+02
1.517684e+02
2.172622e+02
1.519405e+02
</DataArray>
<DataArray type="Float32" Name="V2" format="ascii">
4.504277e-01
4.783775e-01
4.511999e-01
4.791353e-01
4.783775e-01
5.112500e-01
4.791353e-01
5.119950e-01
4.511999e-01
4.791353e-01
4.535062e-01
4.814082e-01
4.791353e-01
5.119950e-01
4.814082e-01
5.142289e-01
4.535062e-01
4.814082e-01
4.573464e-01
4.851927e-01
4.814082e-01
5.142289e-01
4.851927e-01
5.179484e-01
4.573464e-01
4.851927e-01
4.627148e-01
4.904833e-01
4.851927e-01
5.179484e-01
4.904833e-01
5.231481e-01
4.627148e-01
4.904833e-01
4.696036e-01
4.972723e-01
4.904833e-01
5.231481e-01
4.972723e-01
5.298205e-01
4.696036e-01
4.972723e-01
4.780028e-01
5.055498e-01
4.972723e-01
5.298205e-01
5.055498e-01
5.379558e-01
4.780028e-01
5.055498e-01
4.879002e-01
5.153038e-01
5.055498e-01
5.379558e-01
5.153038e-01
5.475423e-01
4.879002e-01
5.153038e-01
4.992813e-01
5.265200e-01
5.153038e-01
5.475423e-01
5.265200e-01
5.585659e-01
4.992813e-01
5.265200e-01
5.121295e-01
5.391822e-01
5.265200e-01
5.585659e-01
5.391822e-01
5.710106e-01
5.121295e-01
5.391822e-01
5.264261e-01
5.532716e-01
5.391822e-01
5.710106e-01
5.532716e-01
5.848581e-01
5.264261e-01
5.532716e-01
5.421499e-01
5.687678e-01
5.532716e-01
5.848581e-01
5.687678e-01
6.000882e-01
5.421499e-01
5.687678e-01
5.592780e-01
5.856480e-01
5.687678e-01
6.000882e-01
5.856480e-01
6.166786e-01
5.592780e-01
5.856480e-01
5.777852e-01
6.038874e-01
5.856480e-01
6.166786e-01
6.038874e-01
6.346049e-01
5.777852e-01
6.038874e-01
5.976442e-01
6.234591e-01
6.038874e-01
6.346049e-01
6.234591e-01
6.538406e-01
5.976442e-01
6.234591e-01
6.188256e-01
6.443342e-01
6.234591e-01
6.538406e-01
6.443342e-01
6.743575e-01
6.188256e-01
6.443342e-01
6.412979e-01
6.664818e-01
6.443342e-01
6.743575e-01
6.664818e-01
6.961250e-01
6.412979e-01
6.664818e-01
6.650279e-01
6.898691e-01
6.664818e-01
6.961250e-01
6.898691e-01
7.191111e-01
6.650279e-01
6.898691e-01
6.899800e-01
7.144612e-01
6.898691e-01
7.191111e-01
7.144612e-01
7.432814e-01
6.899800e-01
7.144612e-01
7.161169e-01
7.402213e-01
7.144612e-01
7.432814e-01
7.402213e-01
7.685999e-01
7.161169e-01
7.402213e-01
7.433992e-01
7.671110e-01
7.402213e-01
7.685999e-01
7.671110e-01
7.950288e-01
7.433992e-01
7.671110e-01
7.717859e-01
7.950897e-01
7.671110e-01
7.950288e-01
7.950897e-01
8.225286e-01
7.717859e-01
7.950897e-01
8.012338e-01
8.241154e-01
7.950897e-01
8.225286e-01
8.241154e-01
8.510578e-01
8.012338e-01
8.241154e-01
8.316979e-01
8.541439e-01
8.241154e-01
8.510578e-01
8.541439e-01
8.805736e-01
8.316979e-01
8.541439e-01
8.631315e-01
8.851298e-01
8.541439e-01
8.805736e-01
8.851298e-01
9.110314e-01
8.631315e-01
8.851298e-01
8.954859e-01
9.170258e-01
8.851298e-01
9.110314e-01
9.170258e-01
9.423854e-01
8.954859e-01
9.170258e-01
9.287109e-01
9.497830e-01
9.170258e-01
9.423854e-01
9.497830e-01
9.745880e-01
9.287109e-01
9.497830e-01
9.627542e-01
9.833512e-01
9.497830e-01
9.745880e-01
9.833512e-01
1.007591e+00
9.627542e-01
9.833512e-01
9.975617e-01
1.017679e+00
9.833512e-01
1.007591e+00
1.017679e+00
1.041344e+00
9.975617e-01
1.017679e+00
1.033078e+00
1.052712e+00
1.017679e+00
1.041344e+00
1.052712e+00
1.075797e+00
1.033078e+00
1.052712e+00
1.069244e+00
1.088398e+00
1.052712e+00
1.075797e+00
1.088398e+00
1.110899e+00
1.069244e+00
1.088398e+00
1.106001e+00
1.124679e+00
1.088398e+00
1.110899e+00
1.124679e+00
1.146598e+00
1.106001e+00
1.124679e+00
1.143286e+00
1.161501e+00
1.124679e+00
1.146598e+00
1.161501e+00
1.182843e+00
1.143286e+00
1.161501e+00
1.181035e+00
1.198805e+00
1.161501e+00
1.182843e+00
1.198805e+00
1.219582e+00
1.181035e+00
1.198805e+00
1.219180e+00
1.236534e+00
1.198805e+00
1.219582e+00
1.236534e+00
1.256766e+00
1.219180e+00
1.236534e+00
1.257650e+00
1.274628e+00
1.236534e+00
1.256766e+00
1.274628e+00
1.294346e+00
1.257650e+00
1.274628e+00
1.296371e+00
1.313028e+00
1.274628e+00
1.294346e+00
1.313028e+00
1.332278e+00
1.296371e+00
1.313028e+00
1.335262e+00
1.351674e+00
1.313028e+00
1.332278e+00
1.351674e+00
1.370522e+00
1.335262e+00
1.351674e+00
1.374237e+00
1.390503e+00
1.351674e+00
1.370522e+00
1.390503e+00
1.409044e+00
1.374237e+00
1.390503e+00
1.413198e+00
1.429451e+00
1.390503e+00
1.409044e+00
1.429451e+00
1.447822e+00
1.413198e+00
1.429451e+00
1.452032e+00
1.468438e+00
1.429451e+00
1.447822e+00
1.468438e+00
1.486845e+00
1.452032e+00
1.468438e+00
1.490581e+00
1.507351e+00
1.468438e+00
1.486845e+00
1.507351e+00
1.526108e+00
1.490581e+00
1.507351e+00
1.528592e+00
1.545932e+00
1.507351e+00
1.526108e+00
1.545932e+00
1.565510e+00
1.528592e+00
1.545932e+00
1.565655e+00
1.583495e+00
1.545932e+00
1.565510e+00
1.583495e+00
1.603633e+00
1.565655e+00
1.583495e+00
1.600654e+00
1.618724e+00
1.583495e+00
1.603633e+00
1.618724e+00
1.638992e+00
1.600654e+00
1.618724e+00
1.633290e+00
1.651786e+00
1.618724e+00
1.638992e+00
1.651786e+00
1.672490e+00
1.633290e+00
1.651786e+00
1.663613e+00
1.682671e+00
1.651786e+00
1.672490e+00
1.682671e+00
1.703922e+00
1.663613e+00
1.682671e+00
1.691721e+00
1.711381e+00
1.682671e+00
1.703922e+00
1.711381e+00
1.733229e+00
1.691721e+00
1.711381e+00
1.717689e+00
1.737940e+00
1.711381e+00
1.733229e+00
1.737940e+00
1.760389e+00
1.717689e+00
1.737940e+00
1.741594e+00
1.762395e+00
1.737940e+00
1.760389e+00
1.762395e+00
1.785418e+00
1.741594e+00
1.762395e+00
1.763508e+00
1.784806e+00
1.762395e+00
1.785418e+00
1.784806e+00
1.808359e+00
1.763508e+00
1.784806e+00
1.783502e+00
1.805237e+00
1.784806e+00
1.808359e+00
1.805237e+00
1.829268e+00
1.783502e+00
1.805237e+00
1.801643e+00
1.823757e+00
1.805237e+00
1.829268e+00
1.823757e+00
1.848208e+00
1.801643e+00
1.823757e+00
1.817993e+00
1.840430e+00
1.823757e+00
1.848208e+00
1.840430e+00
1.865246e+00
1.817993e+00
1.840430e+00
1.832610e+00
1.855319e+00
1.840430e+00
1.865246e+00
1.855319e+00
1.880448e+00
1.832610e+00
1.855319e+00
1.845547e+00
1.868483e+00
1.855319e+00
1.880448e+00
1.868483e+00
1.893876e+00
1.845547e+00
1.868483e+00
1.856852e+00
1.879973e+00
1.868483e+00
1.893876e+00
1.879973e+00
1.905586e+00
1.856852e+00
1.879973e+00
1.866565e+00
1.889837e+00
1.879973e+00
1.905586e+00
1.889837e+00
1.915631e+00
1.866565e+00
1.889837e+00
1.874723e+00
1.898115e+00
1.889837e+00
1.915631e+00
1.898115e+00
1.924054e+00
1.874723e+00
1.898115e+00
1.881357e+00
1.904842e+00
1.898115e+00
1.924054e+00
1.904842e+00
1.930894e+00
1.881357e+00
1.904842e+00
1.886490e+00
1.910045e+00
1.904842e+00
1.930894e+00
1.910045e+00
1.936182e+00
1.886490e+00
1.910045e+00
1.890144e+00
1.913746e+00
1.910045e+00
1.936182e+00
1.913746e+00
1.939942e+00
1.890144e+00
1.913746e+00
1.892330e+00
1.915960e+00
1.913746e+00
1.939942e+00
1.915960e+00
1.942191e+00
1.892330e+00
1.915960e+00
1.893058e+00
1.916697e+00
1.915960e+00
1.942191e+00
1.916697e+00
1.942940e+00
</DataArray>
<DataArray type="Float32" Name="V3" format="ascii">
0.000000e+00
0.000000e+00
2.502487e-02
2.432171e-02
0.000000e+00
0.000000e+00
2.432171e-02
2.349881e-02
2.502487e-02
2.432171e-02
4.998736e-02
4.858176e-02
2.432171e-02
2.349881e-02
4.858176e-02
4.693680e-02
4.998736e-02
4.858176e-02
7.482479e-02
7.271838e-02
4.858176e-02
4.693680e-02
7.271838e-02
7.025325e-02
7.482479e-02
7.271838e-02
9.947483e-02
9.667004e-02
7.271838e-02
7.025325e-02
9.667004e-02
9.338754e-02
9.947483e-02
9.667004e-02
1.238754e-01
1.203754e-01
9.667004e-02
9.338754e-02
1.203754e-01
1.162793e-01
1.238754e-01
1.203754e-01
1.479646e-01
1.437734e-01
1.203754e-01
1.162793e-01
1.437734e-01
1.388683e-01
1.479646e-01
1.437734e-01
1.716810e-01
1.668035e-01
1.437734e-01
1.388683e-01
1.668035e-01
1.610949e-01
1.716810e-01
1.668035e-01
1.949636e-01
1.894052e-01
1.668035e-01
1.610949e-01
1.894052e-01
1.828998e-01
1.949636e-01
1.894052e-01
2.177518e-01
2.115190e-01
1.894052e-01
1.828998e-01
2.115190e-01
2.042239e-01
2.177518e-01
2.115190e-01
2.399856e-01
2.330855e-01
2.115190e-01
2.042239e-01
2.330855e-01
2.250091e-01
2.399856e-01
2.330855e-01
2.616059e-01
2.540462e-01
2.330855e-01
2.250091e-01
2.540462e-01
2.451976e-01
2.616059e-01
2.540462e-01
2.825538e-01
2.743433e-01
2.540462e-01
2.451976e-01
2.743433e-01
2.647325e-01
2.825538e-01
2.743433e-01
3.027717e-01
2.939196e-01
2.743433e-01
2.647325e-01
2.939196e-01
2.835575e-01
3.027717e-01
2.939196e-01
3.222026e-01
3.127190e-01
2.939196e-01
2.835575e-01
3.127190e-01
3.016173e-01
3.222026e-01
3.127190e-01
3.407904e-01
3.306861e-01
3.127190e-01
3.016173e-01
3.306861e-01
3.188572e-01
3.407904e-01
3.306861e-01
3.584800e-01
3.477665e-01
3.306861e-01
3.188572e-01
3.477665e-01
3.352239e-01
3.584800e-01
3.477665e-01
3.752174e-01
3.639069e-01
3.477665e-01
3.352239e-01
3.639069e-01
3.506648e-01
3.752174e-01
3.639069e-01
3.909498e-01
3.790551e-01
3.639069e-01
3.506648e-01
3.790551e-01
3.651285e-01
3.909498e-01
3.790551e-01
4.056253e-01
3.931601e-01
3.790551e-01
3.651285e-01
3.931601e-01
3.785649e-01
4.056253e-01
3.931601e-01
4.191935e-01
4.061721e-01
3.931601e-01
3.785649e-01
4.061721e-01
3.909250e-01
4.191935e-01
4.061721e-01
4.316051e-01
4.180425e-01
4.061721e-01
3.909250e-01
4.180425e-01
4.021612e-01
4.316051e-01
4.180425e-01
4.428122e-01
4.287244e-01
4.180425e-01
4.021612e-01
4.287244e-01
4.122273e-01
4.428122e-01
4.287244e-01
4.527685e-01
4.381718e-01
4.287244e-01
4.122273e-01
4.381718e-01
4.210786e-01
4.527685e-01
4.381718e-01
4.614287e-01
4.463407e-01
4.381718e-01
4.210786e-01
4.463407e-01
4.286719e-01
4.614287e-01
4.463407e-01
4.687493e-01
4.531883e-01
4.463407e-01
4.286719e-01
4.531883e-01
4.349657e-01
4.687493e-01
4.531883e-01
4.746882e-01
4.586736e-01
4.531883e-01
4.349657e-01
4.586736e-01
4.399202e-01
4.746882e-01
4.586736e-01
4.792048e-01
4.627572e-01
4.586736e-01
4.399202e-01
4.627572e-01
4.434975e-01
4.792048e-01
4.627572e-01
4.822602e-01
4.654012e-01
4.627572e-01
4.434975e-01
4.654012e-01
4.456617e-01
4.822602e-01
4.654012e-01
4.838167e-01
4.665698e-01
4.654012e-01
4.456617e-01
4.665698e-01
4.463789e-01
4.838167e-01
4.665698e-01
4.838386e-01
4.662286e-01
4.665698e-01
4.463789e-01
4.662286e-01
4.456173e-01
4.838386e-01
4.662286e-01
4.822913e-01
4.643455e-01
4.662286e-01
4.456173e-01
4.643455e-01
4.433477e-01
4.822913e-01
4.643455e-01
4.791418e-01
4.608899e-01
4.643455e-01
4.433477e-01
4.608899e-01
4.395433e-01
4.791418e-01
4.608899e-01
4.743584e-01
4.558330e-01
4.608899e-01
4.395433e-01
4.558330e-01
4.341800e-01
4.743584e-01
4.558330e-01
4.679109e-01
4.491482e-01
4.558330e-01
4.341800e-01
4.491482e-01
4.272368e-01
4.679109e-01
4.491482e-01
4.597699e-01
4.408105e-01
4.491482e-01
4.272368e-01
4.408105e-01
4.186960e-01
4.597699e-01
4.408105e-01
4.499075e-01
4.307966e-01
4.408105e-01
4.186960e-01
4.307966e-01
4.085433e-01
4.499075e-01
4.307966e-01
4.382964e-01
4.190851e-01
4.307966e-01
4.085433e-01
4.190851e-01
3.967688e-01
4.382964e-01
4.190851e-01
4.249107e-01
4.056560e-01
4.190851e-01
3.967688e-01
4.056560e-01
3.833675e-01
4.249107e-01
4.056560e-01
4.097263e-01
3.904915e-01
4.056560e-01
3.833675e-01
3.904915e-01
3.683402e-01
4.097263e-01
3.904915e-01
3.927249e-01
3.735786e-01
3.904915e-01
3.683402e-01
3.735786e-01
3.516940e-01
3.927249e-01
3.735786e-01
3.739105e-01
3.549240e-01
3.735786e-01
3.516940e-01
3.549240e-01
3.334343e-01
3.739105e-01
3.549240e-01
3.533743e-01
3.346007e-01
3.549240e-01
3.334343e-01
3.346007e-01
3.135066e-01
3.533743e-01
3.346007e-01
3.316395e-01
3.131211e-01
3.346007e-01
3.135066e-01
3.131211e-01
2.919827e-01
3.316395e-01
3.131211e-01
3.104786e-01
2.925646e-01
3.131211e-01
2.919827e-01
2.925646e-01
2.723517e-01
3.104786e-01
2.925646e-01
2.903544e-01
2.731974e-01
2.925646e-01
2.723517e-01
2.731974e-01
2.540649e-01
2.903544e-01
2.731974e-01
2.712074e-01
2.549323e-01
2.731974e-01
2.540649e-01
2.549323e-01
2.369228e-01
2.712074e-01
2.549323e-01
2.528703e-01
2.375653e-01
2.549323e-01
2.369228e-01
2.375653e-01
2.207123e-01
2.528703e-01
2.375653e-01
2.352034e-01
2.209257e-01
2.375653e-01
2.207123e-01
2.209257e-01
2.052517e-01
2.352034e-01
2.209257e-01
2.180841e-01
2.048654e-01
2.209257e-01
2.052517e-01
2.048654e-01
1.903806e-01
2.180841e-01
2.048654e-01
2.014076e-01
1.892596e-01
2.048654e-01
1.903806e-01
1.892596e-01
1.759624e-01
2.014076e-01
1.892596e-01
1.850861e-01
1.740053e-01
1.892596e-01
1.759624e-01
1.740053e-01
1.618832e-01
1.850861e-01
1.740053e-01
1.690464e-01
1.590185e-01
1.740053e-01
1.618832e-01
1.590185e-01
1.480507e-01
1.690464e-01
1.590185e-01
1.532282e-01
1.442314e-01
1.590185e-01
1.480507e-01
1.442314e-01
1.343916e-01
1.532282e-01
1.442314e-01
1.375821e-01
1.295903e-01
1.442314e-01
1.343916e-01
1.295903e-01
1.208487e-01
1.375821e-01
1.295903e-01
1.220683e-01
1.150534e-01
1.295903e-01
1.208487e-01
1.150534e-01
1.073788e-01
1.220683e-01
1.150534e-01
1.066545e-01
1.005885e-01
1.150534e-01
1.073788e-01
1.005885e-01
9.395030e-02
1.066545e-01
1.005885e-01
9.131558e-02
8.617141e-02
1.005885e-01
9.395030e-02
8.617141e-02
8.054066e-02
9.131558e-02
8.617141e-02
7.603145e-02
7.178471e-02
8.617141e-02
8.054066e-02
7.178471e-02
6.713512e-02
7.603145e-02
7.178471e-02
6.078671e-02
5.741607e-02
7.178471e-02
6.713512e-02
5.741607e-02
5.372486e-02
6.078671e-02
5.741607e-02
4.556943e-02
4.305729e-02
5.741607e-02
5.372486e-02
4.305729e-02
4.030571e-02
4.556943e-02
4.305729e-02
3.037046e-02
2.870331e-02
4.305729e-02
4.030571e-02
2.870331e-02
2.687702e-02
3.037046e-02
2.870331e-02
1.518261e-02
1.435134e-02
2.870331e-02
2.687702e-02
1.435134e-02
1.344063e-02
1.518261e-02
1.435134e-02
0.000000e+00
0.000000e+00
1.435134e-02
1.344063e-02
0.000000e+00
0.000000e+00
</DataArray>
<DataArray type="Float32" Name="V4" format="ascii">
8.500000e-01
9.250000e-01
8.500000e-01
9.250000e-01
9.250000e-01
1.000000e+00