<?xml version="1.0"?>
<VTKFile type="UnstructuredGrid" version="0.1" byte_order="LittleEndian" compressor="vtkZLibDataCompressor">
<UnstructuredGrid>
<Piece NumberOfPoints="504" NumberOfCells="126">
<Points>
<DataArray type="Float32" NumberOfComponents="3" format="ascii">
0.000000e+00 7.548525e-01 0.000000e+00
0.000000e+00 8.031376e-01 0.000000e+00
2.760340e-02 7.548650e-01 0.000000e+00
2.757475e-02 8.031444e-01 0.000000e+00
0.000000e+00 8.031376e-01 0.000000e+00
0.000000e+00 8.600000e-01 0.000000e+00
2.757475e-02 8.031444e-01 0.000000e+00
2.756493e-02 8.600000e-01 0.000000e+00
2.760340e-02 7.548650e-01 0.000000e+00
2.757475e-02 8.031444e-01 0.000000e+00
5.520639e-02 7.548993e-01 0.000000e+00
5.514969e-02 8.031646e-01 0.000000e+00
2.757475e-02 8.031444e-01 0.000000e+00
2.756493e-02 8.600000e-01 0.000000e+00
5.514969e-02 8.031646e-01 0.000000e+00
5.513067e-02 8.600000e-01 0.000000e+00
5.520639e-02 7.548993e-01 0.000000e+00
5.514969e-02 8.031646e-01 0.000000e+00
8.280829e-02 7.549569e-01 0.000000e+00
8.272507e-02 8.031987e-01 0.000000e+00
5.514969e-02 8.031646e-01 0.000000e+00
5.513067e-02 8.600000e-01 0.000000e+00
8.272507e-02 8.031987e-01 0.000000e+00
8.269816e-02 8.600000e-01 0.000000e+00
8.280829e-02 7.549569e-01 0.000000e+00
8.272507e-02 8.031987e-01 0.000000e+00
1.104085e-01 7.550380e-01 0.000000e+00
1.103012e-01 8.032471e-01 0.000000e+00
8.272507e-02 8.031987e-01 0.000000e+00
8.269816e-02 8.600000e-01 0.000000e+00
1.103012e-01 8.032471e-01 0.000000e+00
1.102686e-01 8.600000e-01 0.000000e+00
1.104085e-01 7.550380e-01 0.000000e+00
1.103012e-01 8.032471e-01 0.000000e+00
1.380060e-01 7.551430e-01 0.000000e+00
1.378784e-01 8.033105e-01 0.000000e+00
1.103012e-01 8.032471e-01 0.000000e+00
1.102686e-01 8.600000e-01 0.000000e+00
1.378784e-01 8.033105e-01 0.000000e+00
1.378433e-01 8.600000e-01 0.000000e+00
1.380060e-01 7.551430e-01 0.000000e+00
1.378784e-01 8.033105e-01 0.000000e+00
1.655998e-01 7.552727e-01 0.000000e+00
1.654572e-01 8.033899e-01 0.000000e+00
1.378784e-01 8.033105e-01 0.000000e+00
1.378433e-01 8.600000e-01 0.000000e+00
1.654572e-01 8.033899e-01 0.000000e+00
1.654245e-01 8.600000e-01 0.000000e+00
1.655998e-01 7.552727e-01 0.000000e+00
1.654572e-01 8.033899e-01 0.000000e+00
1.931882e-01 7.554279e-01 0.000000e+00
1.930384e-01 8.034867e-01 0.000000e+00
1.654572e-01 8.033899e-01 0.000000e+00
1.654245e-01 8.600000e-01 0.000000e+00
1.930384e-01 8.034867e-01 0.000000e+00
1.930146e-01 8.600000e-01 0.000000e+00
1.931882e-01 7.554279e-01 0.000000e+00
1.930384e-01 8.034867e-01 0.000000e+00
2.207690e-01 7.556098e-01 0.000000e+00
2.206229e-01 8.036028e-01 0.000000e+00
1.930384e-01 8.034867e-01 0.000000e+00
1.930146e-01 8.600000e-01 0.000000e+00
2.206229e-01 8.036028e-01 0.000000e+00
2.206174e-01 8.600000e-01 0.000000e+00
2.207690e-01 7.556098e-01 0.000000e+00
2.206229e-01 8.036028e-01 0.000000e+00
2.483393e-01 7.558197e-01 0.000000e+00
2.482120e-01 8.037405e-01 0.000000e+00
2.206229e-01 8.036028e-01 0.000000e+00
2.206174e-01 8.600000e-01 0.000000e+00
2.482120e-01 8.037405e-01 0.000000e+00
2.482376e-01 8.600000e-01 0.000000e+00
2.483393e-01 7.558197e-01 0.000000e+00
2.482120e-01 8.037405e-01 0.000000e+00
2.758947e-01 7.560592e-01 0.000000e+00
2.758074e-01 8.039026e-01 0.000000e+00
2.482120e-01 8.037405e-01 0.000000e+00
2.482376e-01 8.600000e-01 0.000000e+00
2.758074e-01 8.039026e-01 0.000000e+00
2.758816e-01 8.600000e-01 0.000000e+00
2.758947e-01 7.560592e-01 0.000000e+00
2.758074e-01 8.039026e-01 0.000000e+00
3.034295e-01 7.563297e-01 0.000000e+00
3.034111e-01 8.040927e-01 0.000000e+00
2.758074e-01 8.039026e-01 0.000000e+00
2.758816e-01 8.600000e-01 0.000000e+00
3.034111e-01 8.040927e-01 0.000000e+00
3.035579e-01 8.600000e-01 0.000000e+00
3.034295e-01 7.563297e-01 0.000000e+00
3.034111e-01 8.040927e-01 0.000000e+00
3.309358e-01 7.566328e-01 0.000000e+00
3.310258e-01 8.043148e-01 0.000000e+00
3.034111e-01 8.040927e-01 0.000000e+00
3.035579e-01 8.600000e-01 0.000000e+00
3.310258e-01 8.043148e-01 0.000000e+00
3.312774e-01 8.600000e-01 0.000000e+00
3.309358e-01 7.566328e-01 0.000000e+00
3.310258e-01 8.043148e-01 0.000000e+00
3.584027e-01 7.569690e-01 0.000000e+00
3.586544e-01 8.045731e-01 0.000000e+00
3.310258e-01 8.043148e-01 0.000000e+00
3.312774e-01 8.600000e-01 0.000000e+00
3.586544e-01 8.045731e-01 0.000000e+00
3.590538e-01 8.600000e-01 0.000000e+00
3.584027e-01 7.569690e-01 0.000000e+00
3.586544e-01 8.045731e-01 0.000000e+00
3.858156e-01 7.573374e-01 0.000000e+00
3.862998e-01 8.048718e-01 0.000000e+00
3.586544e-01 8.045731e-01 0.000000e+00
3.590538e-01 8.600000e-01 0.000000e+00
3.862998e-01 8.048718e-01 0.000000e+00
3.869046e-01 8.600000e-01 0.000000e+00
3.858156e-01 7.573374e-01 0.000000e+00
3.862998e-01 8.048718e-01 0.000000e+00
4.131547e-01 7.577338e-01 0.000000e+00
4.139644e-01 8.052136e-01 0.000000e+00
3.862998e-01 8.048718e-01 0.000000e+00
3.869046e-01 8.600000e-01 0.000000e+00
4.139644e-01 8.052136e-01 0.000000e+00
4.148507e-01 8.600000e-01 0.000000e+00
4.131547e-01 7.577338e-01 0.000000e+00
4.139644e-01 8.052136e-01 0.000000e+00
4.403944e-01 7.581482e-01 0.000000e+00
4.416486e-01 8.055980e-01 0.000000e+00
4.139644e-01 8.052136e-01 0.000000e+00
4.148507e-01 8.600000e-01 0.000000e+00
4.416486e-01 8.055980e-01 0.000000e+00
4.429165e-01 8.600000e-01 0.000000e+00
4.403944e-01 7.581482e-01 0.000000e+00
4.416486e-01 8.055980e-01 0.000000e+00
4.675011e-01 7.585606e-01 0.000000e+00
4.693473e-01 8.060169e-01 0.000000e+00
4.416486e-01 8.055980e-01 0.000000e+00
4.429165e-01 8.600000e-01 0.000000e+00
4.693473e-01 8.060169e-01 0.000000e+00
4.711286e-01 8.600000e-01 0.000000e+00
4.675011e-01 7.585606e-01 0.000000e+00
4.693473e-01 8.060169e-01 0.000000e+00
4.944328e-01 7.589338e-01 0.000000e+00
4.970446e-01 8.064479e-01 0.000000e+00
4.693473e-01 8.060169e-01 0.000000e+00
4.711286e-01 8.600000e-01 0.000000e+00
4.970446e-01 8.064479e-01 0.000000e+00
4.995121e-01 8.600000e-01 0.000000e+00
4.944328e-01 7.589338e-01 0.000000e+00
4.970446e-01 8.064479e-01 0.000000e+00
5.211380e-01 7.592020e-01 0.000000e+00
5.247031e-01 8.068399e-01 0.000000e+00
4.970446e-01 8.064479e-01 0.000000e+00
4.995121e-01 8.600000e-01 0.000000e+00
5.247031e-01 8.068399e-01 0.000000e+00
5.280840e-01 8.600000e-01 0.000000e+00
5.211380e-01 7.592020e-01 0.000000e+00
5.247031e-01 8.068399e-01 0.000000e+00
5.475544e-01 7.592529e-01 0.000000e+00
5.522444e-01 8.070851e-01 0.000000e+00
5.247031e-01 8.068399e-01 0.000000e+00
5.280840e-01 8.600000e-01 0.000000e+00
5.522444e-01 8.070851e-01 0.000000e+00
5.568392e-01 8.600000e-01 0.000000e+00
5.475544e-01 7.592529e-01 0.000000e+00
5.522444e-01 8.070851e-01 0.000000e+00
5.736014e-01 7.588884e-01 0.000000e+00
5.795395e-01 8.069524e-01 0.000000e+00
5.522444e-01 8.070851e-01 0.000000e+00
5.568392e-01 8.600000e-01 0.000000e+00
5.795395e-01 8.069524e-01 0.000000e+00
5.857136e-01 8.600000e-01 0.000000e+00
5.736014e-01 7.588884e-01 0.000000e+00
5.795395e-01 8.069524e-01 0.000000e+00
5.992928e-01 7.578620e-01 0.000000e+00
6.066061e-01 8.061063e-01 0.000000e+00
5.795395e-01 8.069524e-01 0.000000e+00
5.857136e-01 8.600000e-01 0.000000e+00
6.066061e-01 8.061063e-01 0.000000e+00
6.142584e-01 8.594799e-01 0.000000e+00
5.992928e-01 7.578620e-01 0.000000e+00
6.066061e-01 8.061063e-01 0.000000e+00
6.245722e-01 7.557773e-01 0.000000e+00
6.333509e-01 8.039060e-01 0.000000e+00
6.066061e-01 8.061063e-01 0.000000e+00
6.142584e-01 8.594799e-01 0.000000e+00
6.333509e-01 8.039060e-01 0.000000e+00
6.426930e-01 8.565344e-01 0.000000e+00
6.245722e-01 7.557773e-01 0.000000e+00
6.333509e-01 8.039060e-01 0.000000e+00
6.494464e-01 7.525043e-01 0.000000e+00
6.598564e-01 8.003106e-01 0.000000e+00
6.333509e-01 8.039060e-01 0.000000e+00
6.426930e-01 8.565344e-01 0.000000e+00
6.598564e-01 8.003106e-01 0.000000e+00
6.711556e-01 8.520059e-01 0.000000e+00
6.494464e-01 7.525043e-01 0.000000e+00
6.598564e-01 8.003106e-01 0.000000e+00
6.739570e-01 7.479369e-01 0.000000e+00
6.861585e-01 7.952396e-01 0.000000e+00
6.598564e-01 8.003106e-01 0.000000e+00
6.711556e-01 8.520059e-01 0.000000e+00
6.861585e-01 7.952396e-01 0.000000e+00
6.994738e-01 8.459659e-01 0.000000e+00
6.739570e-01 7.479369e-01 0.000000e+00
6.861585e-01 7.952396e-01 0.000000e+00
6.981110e-01 7.420956e-01 0.000000e+00
7.122020e-01 7.887510e-01 0.000000e+00
6.861585e-01 7.952396e-01 0.000000e+00
6.994738e-01 8.459659e-01 0.000000e+00
7.122020e-01 7.887510e-01 0.000000e+00
7.275470e-01 8.384850e-01 0.000000e+00
6.981110e-01 7.420956e-01 0.000000e+00
7.122020e-01 7.887510e-01 0.000000e+00
7.219027e-01 7.350150e-01 0.000000e+00
7.379150e-01 7.809001e-01 0.000000e+00
7.122020e-01 7.887510e-01 0.000000e+00
7.275470e-01 8.384850e-01 0.000000e+00
7.379150e-01 7.809001e-01 0.000000e+00
7.552771e-01 8.296107e-01 0.000000e+00
7.219027e-01 7.350150e-01 0.000000e+00
7.379150e-01 7.809001e-01 0.000000e+00
7.453152e-01 7.267402e-01 0.000000e+00
7.632332e-01 7.717486e-01 0.000000e+00
7.379150e-01 7.809001e-01 0.000000e+00
7.552771e-01 8.296107e-01 0.000000e+00
7.632332e-01 7.717486e-01 0.000000e+00
7.825800e-01 8.193975e-01 0.000000e+00
7.453152e-01 7.267402e-01 0.000000e+00
7.632332e-01 7.717486e-01 0.000000e+00
7.683253e-01 7.173181e-01 0.000000e+00
7.881032e-01 7.613594e-01 0.000000e+00
7.632332e-01 7.717486e-01 0.000000e+00
7.825800e-01 8.193975e-01 0.000000e+00
7.881032e-01 7.613594e-01 0.000000e+00
8.093853e-01 8.079050e-01 0.000000e+00
7.683253e-01 7.173181e-01 0.000000e+00
7.881032e-01 7.613594e-01 0.000000e+00
7.909074e-01 7.067963e-01 0.000000e+00
8.124804e-01 7.497949e-01 0.000000e+00
7.881032e-01 7.613594e-01 0.000000e+00
8.093853e-01 8.079050e-01 0.000000e+00
8.124804e-01 7.497949e-01 0.000000e+00
8.356353e-01 7.951959e-01 0.000000e+00
7.909074e-01 7.067963e-01 0.000000e+00
8.124804e-01 7.497949e-01 0.000000e+00
8.130353e-01 6.952225e-01 0.000000e+00
8.363276e-01 7.371161e-01 0.000000e+00
8.124804e-01 7.497949e-01 0.000000e+00
8.356353e-01 7.951959e-01 0.000000e+00
8.363276e-01 7.371161e-01 0.000000e+00
8.612836e-01 7.813339e-01 0.000000e+00
8.130353e-01 6.952225e-01 0.000000e+00
[...]
<PointData>
<DataArray type="Float32" Name="V1" format="ascii">
1.446157e+01
5.172491e+00
1.446758e+01
5.178507e+00
5.461409e+00
5.555298e-01
5.465029e+00
5.591506e-01
1.447017e+01
5.175592e+00
1.448538e+01
5.190800e+00
5.466600e+00
5.581688e-01
5.475703e+00
5.672712e-01
1.449115e+01
5.185173e+00
1.451654e+01
5.210567e+00
5.478958e+00
5.654095e-01
5.494344e+00
5.807951e-01
1.452487e+01
5.202254e+00
1.456028e+01
5.237665e+00
5.499108e+00
5.779039e-01
5.520884e+00
5.996794e-01
1.457089e+01
5.226942e+00
1.461605e+01
5.272100e+00
5.527140e+00
5.957705e-01
5.555485e+00
6.241152e-01
1.462850e+01
5.259408e+00
1.468301e+01
5.313920e+00
5.563183e+00
6.191999e-01
5.598382e+00
6.543986e-01
1.469662e+01
5.299908e+00
1.475992e+01
5.363206e+00
5.607435e+00
6.484897e-01
5.649912e+00
6.909670e-01
1.477372e+01
5.348818e+00
1.484499e+01
5.420094e+00
5.660180e+00
6.840872e-01
5.710561e+00
7.344680e-01
1.485757e+01
5.406691e+00
1.493569e+01
5.484813e+00
5.721821e+00
7.266612e-01
5.781017e+00
7.858568e-01
1.494505e+01
5.474327e+00
1.502846e+01
5.557736e+00
5.792929e+00
7.771995e-01
5.862264e+00
8.465341e-01
1.503180e+01
5.552894e+00
1.511838e+01
5.639475e+00
5.874311e+00
8.371591e-01
5.955705e+00
9.185527e-01
1.511184e+01
5.644067e+00
1.519877e+01
5.730997e+00
5.967103e+00
9.086890e-01
6.063334e+00
1.004920e+00
1.517712e+01
5.750233e+00
1.526070e+01
5.833815e+00
6.072884e+00
9.949609e-01
6.187975e+00
1.110051e+00
1.521700e+01
5.874726e+00
1.529250e+01
5.950224e+00
6.193820e+00
1.100694e+00
6.333594e+00
1.240468e+00
1.521783e+01
6.022088e+00
1.527936e+01
6.083618e+00
6.332789e+00
1.232979e+00
6.505712e+00
1.405902e+00
1.516268e+01
6.198276e+00
1.520327e+01
6.238861e+00
6.493447e+00
1.402649e+00
6.711911e+00
1.621113e+00
1.503181e+01
6.410686e+00
1.504384e+01
6.422721e+00
6.680067e+00
1.626655e+00
6.962406e+00
1.908994e+00
1.480425e+01
6.667794e+00
1.478084e+01
6.644389e+00
6.896789e+00
1.932342e+00
7.270523e+00
2.306076e+00
1.446185e+01
6.978216e+00
1.439979e+01
6.916159e+00
7.145375e+00
2.365458e+00
7.652412e+00
2.872495e+00
1.399684e+01
7.350504e+00
1.390086e+01
7.254525e+00
7.418080e+00
3.006674e+00
8.121959e+00
3.710552e+00
1.342667e+01
7.789739e+00
1.331477e+01
7.677834e+00
7.663359e+00
4.015326e+00
8.659698e+00
5.011666e+00
1.275255e+01
8.368951e+00
1.268003e+01
8.296423e+00
7.703628e+00
5.887070e+00
8.835728e+00
7.019170e+00
1.219805e+01
8.859151e+00
1.213095e+01
8.792054e+00
8.340968e+00
7.321675e+00
8.899407e+00
7.880114e+00
1.179799e+01
9.145754e+00
1.179539e+01
9.143148e+00
8.817631e+00
7.895257e+00
9.220715e+00
8.298341e+00
1.156692e+01
9.381003e+00
1.161548e+01
9.429564e+00
9.133964e+00
8.341257e+00
9.466808e+00
8.674101e+00
1.147979e+01
9.576526e+00
1.157949e+01
9.676224e+00
9.403345e+00
8.710904e+00
9.693294e+00
9.000853e+00
1.150099e+01
9.764010e+00
1.164171e+01
9.904729e+00
9.650820e+00
9.026811e+00
9.908060e+00
9.284051e+00
1.160106e+01
9.951028e+00
1.177149e+01
1.012146e+01
9.885972e+00
9.297428e+00
1.011630e+01
9.527760e+00
1.175668e+01
1.013842e+01
1.194721e+01
1.032894e+01
1.011136e+01
9.529855e+00
1.031884e+01
9.737335e+00
1.195079e+01
1.032464e+01
1.215383e+01
1.052768e+01
1.032742e+01
9.730321e+00
1.051525e+01
9.918150e+00
1.217079e+01
1.050785e+01
1.238054e+01
1.071760e+01
1.053396e+01
9.904285e+00
1.070476e+01
1.007509e+01
1.240727e+01
1.068646e+01
1.261932e+01
1.089851e+01
1.073074e+01
1.005635e+01
1.088669e+01
1.021230e+01
1.265311e+01
1.085929e+01
1.286414e+01
1.107031e+01
1.091764e+01
1.019028e+01
1.106055e+01
1.033320e+01
1.290288e+01
1.102549e+01
1.311041e+01
1.123302e+01
1.109470e+01
1.030915e+01
1.122609e+01
1.044053e+01
1.315247e+01
1.118455e+01
1.335467e+01
1.138675e+01
1.126207e+01
1.041540e+01
1.138319e+01
1.053652e+01
1.339874e+01
1.133614e+01
1.359430e+01
1.153171e+01
1.141998e+01
1.051099e+01
1.153190e+01
1.062290e+01
1.363937e+01
1.148015e+01
1.382738e+01
1.166816e+01
1.156873e+01
1.059749e+01
1.167234e+01
1.070110e+01
1.387263e+01
1.161657e+01
1.405247e+01
1.179641e+01
1.170866e+01
1.067617e+01
1.180471e+01
1.077223e+01
1.409729e+01
1.174548e+01
1.426859e+01
1.191678e+01
1.184011e+01
1.074805e+01
1.192926e+01
1.083720e+01
1.431249e+01
1.186704e+01
1.447504e+01
1.202959e+01
1.196345e+01
1.081395e+01
1.204626e+01
1.089676e+01
1.451767e+01
1.198143e+01
1.467142e+01
1.213518e+01
1.207903e+01
1.087455e+01
1.215598e+01
1.095149e+01
1.471251e+01
1.208889e+01
1.485748e+01
1.223386e+01
1.218722e+01
1.093039e+01
1.225871e+01
1.100189e+01
1.489683e+01
1.218964e+01
1.503314e+01
1.232595e+01
1.228833e+01
1.098194e+01
1.235475e+01
1.104836e+01
1.507061e+01
1.228393e+01
1.519843e+01
1.241174e+01
1.238271e+01
1.102958e+01
1.244436e+01
1.109123e+01
1.523393e+01
1.237200e+01
1.535344e+01
1.249151e+01
1.247064e+01
1.107363e+01
1.252781e+01
1.113080e+01
1.538692e+01
1.245410e+01
1.549834e+01
1.256552e+01
1.255243e+01
1.111435e+01
1.260537e+01
1.116729e+01
1.552978e+01
1.253046e+01
1.563334e+01
1.263402e+01
1.262833e+01
1.115197e+01
1.267727e+01
1.120091e+01
1.566272e+01
1.260131e+01
1.575866e+01
1.269724e+01
1.269861e+01
1.118669e+01
1.274374e+01
1.123182e+01
1.578600e+01
1.266685e+01
1.587454e+01
1.275540e+01
1.276350e+01
1.121868e+01
1.280499e+01
1.126018e+01
1.589985e+01
1.272729e+01
1.598124e+01
1.280868e+01
1.282321e+01
1.124809e+01
1.286123e+01
1.128612e+01
1.600455e+01
1.278282e+01
1.607899e+01
1.285726e+01
1.287794e+01
1.127504e+01
1.291264e+01
1.130973e+01
1.610033e+01
1.283361e+01
1.616803e+01
1.290131e+01
1.292788e+01
1.129964e+01
1.295937e+01
1.133113e+01
1.618744e+01
1.287983e+01
1.624859e+01
1.294098e+01
1.297319e+01
1.132199e+01
1.300159e+01
1.135039e+01
1.626610e+01
1.292161e+01
1.632088e+01
1.297640e+01
1.301403e+01
1.134217e+01
1.303944e+01
1.136758e+01
1.633653e+01
1.295911e+01
1.638511e+01
1.300769e+01
1.305052e+01
1.136026e+01
1.307304e+01
1.138277e+01
1.639893e+01
1.299243e+01
1.644145e+01
1.303495e+01
1.308280e+01
1.137632e+01
1.310249e+01
1.139601e+01
1.645346e+01
1.302168e+01
1.649005e+01
1.305827e+01
1.311097e+01
1.139042e+01
1.312790e+01
1.140735e+01
1.650030e+01
1.304697e+01
1.653106e+01
1.307774e+01
1.313512e+01
1.140259e+01
1.314935e+01
1.141682e+01
1.653956e+01
1.306836e+01
1.656461e+01
1.309341e+01
1.315533e+01
1.141288e+01
1.316691e+01
1.142446e+01
1.657138e+01
1.308594e+01
1.659078e+01
1.310534e+01
1.317167e+01
1.142132e+01
1.318064e+01
1.143029e+01
1.659585e+01
1.309976e+01
1.660966e+01
1.311357e+01
1.318420e+01
1.142794e+01
1.319058e+01
1.143433e+01
1.661303e+01
1.310986e+01
1.662130e+01
1.311813e+01
1.319295e+01
1.143277e+01
1.319677e+01
1.143659e+01
1.662298e+01
1.311628e+01
1.662573e+01
1.311903e+01
1.319795e+01
1.143581e+01
1.319922e+01
1.143709e+01
</DataArray>
<DataArray type="Float32" Name="V2" format="ascii">
7.548525e-01
8.031376e-01
7.553185e-01
8.035822e-01
8.031376e-01
8.600000e-01
8.035822e-01
8.604199e-01
7.553185e-01
8.035822e-01
7.567128e-01
8.049152e-01
8.035822e-01
8.604199e-01
8.049152e-01
8.616790e-01
7.567128e-01
8.049152e-01
7.590342e-01
8.071349e-01
8.049152e-01
8.616790e-01
8.071349e-01
8.637753e-01
7.590342e-01
8.071349e-01
7.622791e-01
8.102380e-01
8.071349e-01
8.637753e-01
8.102380e-01
8.667057e-01
7.622791e-01
8.102380e-01
7.664427e-01
8.142204e-01
8.102380e-01
8.667057e-01
8.142204e-01
8.704657e-01
7.664427e-01
8.142204e-01
7.715183e-01
8.190768e-01
8.142204e-01
8.704657e-01
8.190768e-01
8.750497e-01
7.715183e-01
8.190768e-01
7.774980e-01
8.248007e-01
8.190768e-01
8.750497e-01
8.248007e-01
8.804513e-01
7.774980e-01
8.248007e-01
7.843725e-01
8.313850e-01
8.248007e-01
8.804513e-01
8.313850e-01
8.866628e-01
7.843725e-01
8.313850e-01
7.921304e-01
8.388214e-01
8.313850e-01
8.866628e-01
8.388214e-01
8.936761e-01
7.921304e-01
8.388214e-01
8.007588e-01
8.471013e-01
8.388214e-01
8.936761e-01
8.471013e-01
9.014823e-01
8.007588e-01
8.471013e-01
8.102423e-01
8.562152e-01
8.471013e-01
9.014823e-01
8.562152e-01
9.100726e-01
8.102423e-01
8.562152e-01
8.205628e-01
8.661529e-01
8.562152e-01
9.100726e-01
8.661529e-01
9.194383e-01
8.205628e-01
8.661529e-01
8.316981e-01
8.769035e-01
8.661529e-01
9.194383e-01
8.769035e-01
9.295714e-01
8.316981e-01
8.769035e-01
8.436211e-01
8.884544e-01
8.769035e-01
9.295714e-01
8.884544e-01
9.404648e-01
8.436211e-01
8.884544e-01
8.562969e-01
9.007904e-01
8.884544e-01
9.404648e-01
9.007904e-01
9.521134e-01
8.562969e-01
9.007904e-01
8.696800e-01
9.138910e-01
9.007904e-01
9.521134e-01
9.138910e-01
9.645137e-01
8.696800e-01
9.138910e-01
8.837096e-01
9.277256e-01
9.138910e-01
9.645137e-01
9.277256e-01
9.776641e-01
8.837096e-01
9.277256e-01
8.983021e-01
9.422440e-01
9.277256e-01
9.776641e-01
9.422440e-01
9.915634e-01
8.983021e-01
9.422440e-01
9.133411e-01
9.573592e-01
9.422440e-01
9.915634e-01
9.573592e-01
1.006207e+00
9.133411e-01
9.573592e-01
9.286623e-01
9.729126e-01
9.573592e-01
1.006207e+00
9.729126e-01
1.021581e+00
9.286623e-01
9.729126e-01
9.440174e-01
9.886110e-01
9.729126e-01
1.021581e+00
9.886110e-01
1.037639e+00
9.440174e-01
9.886110e-01
9.591691e-01
1.004149e+00
9.886110e-01
1.037639e+00
1.004149e+00
1.053682e+00
9.591691e-01
1.004149e+00
9.737319e-01
1.018924e+00
1.004149e+00
1.053682e+00
1.018924e+00
1.068202e+00
9.737319e-01
1.018924e+00
9.875944e-01
1.032958e+00
1.018924e+00
1.068202e+00
1.032958e+00
1.082036e+00
9.875944e-01
1.032958e+00
1.000696e+00
1.046226e+00
1.032958e+00
1.082036e+00
1.046226e+00
1.095185e+00
1.000696e+00
1.046226e+00
1.013071e+00
1.058770e+00
1.046226e+00
1.095185e+00
1.058770e+00
1.107680e+00
1.013071e+00
1.058770e+00
1.024757e+00
1.070615e+00
1.058770e+00
1.107680e+00
1.070615e+00
1.119523e+00
1.024757e+00
1.070615e+00
1.035795e+00
1.081791e+00
1.070615e+00
1.119523e+00
1.081791e+00
1.130728e+00
1.035795e+00
1.081791e+00
1.046222e+00
1.092330e+00
1.081791e+00
1.130728e+00
1.092330e+00
1.141311e+00
1.046222e+00
1.092330e+00
1.056072e+00
1.102266e+00
1.092330e+00
1.141311e+00
1.102266e+00
1.151296e+00
1.056072e+00
1.102266e+00
1.065378e+00
1.111632e+00
1.102266e+00
1.151296e+00
1.111632e+00
1.160711e+00
1.065378e+00
1.111632e+00
1.074169e+00
1.120460e+00
1.111632e+00
1.160711e+00
1.120460e+00
1.169584e+00
1.074169e+00
1.120460e+00
1.082473e+00
1.128783e+00
1.120460e+00
1.169584e+00
1.128783e+00
1.177943e+00
1.082473e+00
1.128783e+00
1.090315e+00
1.136627e+00
1.128783e+00
1.177943e+00
1.136627e+00
1.185817e+00
1.090315e+00
1.136627e+00
1.097721e+00
1.144022e+00
1.136627e+00
1.185817e+00
1.144022e+00
1.193233e+00
1.097721e+00
1.144022e+00
1.104712e+00
1.150992e+00
1.144022e+00
1.193233e+00
1.150992e+00
1.200217e+00
1.104712e+00
1.150992e+00
1.111310e+00
1.157559e+00
1.150992e+00
1.200217e+00
1.157559e+00
1.206792e+00
1.111310e+00
1.157559e+00
1.117534e+00
1.163747e+00
1.157559e+00
1.206792e+00
1.163747e+00
1.212981e+00
1.117534e+00
1.163747e+00
1.123402e+00
1.169573e+00
1.163747e+00
1.212981e+00
1.169573e+00
1.218804e+00
1.123402e+00
1.169573e+00
1.128931e+00
1.175057e+00
1.169573e+00
1.218804e+00
1.175057e+00
1.224281e+00
1.128931e+00
1.175057e+00
1.134135e+00
1.180215e+00
1.175057e+00
1.224281e+00
1.180215e+00
1.229427e+00
1.134135e+00
1.180215e+00
1.139028e+00
1.185061e+00
1.180215e+00
1.229427e+00
1.185061e+00
1.234259e+00
1.139028e+00
1.185061e+00
1.143624e+00
1.189609e+00
1.185061e+00
1.234259e+00
1.189609e+00
1.238792e+00
1.143624e+00
1.189609e+00
1.147935e+00
1.193872e+00
1.189609e+00
1.238792e+00
1.193872e+00
1.243037e+00
1.147935e+00
1.193872e+00
1.151970e+00
1.197860e+00
1.193872e+00
1.243037e+00
1.197860e+00
1.247007e+00
1.151970e+00
1.197860e+00
1.155740e+00
1.201585e+00
1.197860e+00
1.247007e+00
1.201585e+00
1.250713e+00
1.155740e+00
1.201585e+00
1.159253e+00
1.205055e+00
1.201585e+00
1.250713e+00
1.205055e+00
1.254163e+00
1.159253e+00
1.205055e+00
1.162518e+00
1.208279e+00
1.205055e+00
1.254163e+00
1.208279e+00
1.257368e+00
1.162518e+00
1.208279e+00
1.165542e+00
1.211263e+00
1.208279e+00
1.257368e+00
1.211263e+00
1.260333e+00
1.165542e+00
1.211263e+00
1.168331e+00
1.214016e+00
1.211263e+00
1.260333e+00
1.214016e+00
1.263068e+00
1.168331e+00
1.214016e+00
1.170892e+00
1.216543e+00
1.214016e+00
1.263068e+00
1.216543e+00
1.265577e+00
1.170892e+00
1.216543e+00
1.173230e+00
1.218849e+00
1.216543e+00
1.265577e+00
1.218849e+00
1.267867e+00
1.173230e+00
1.218849e+00
1.175350e+00
1.220940e+00
1.218849e+00
1.267867e+00
1.220940e+00
1.269942e+00
1.175350e+00
1.220940e+00
1.177255e+00
1.222819e+00
1.220940e+00
1.269942e+00
1.222819e+00
1.271807e+00
1.177255e+00
1.222819e+00
1.178951e+00
1.224491e+00
1.222819e+00
1.271807e+00
1.224491e+00
1.273466e+00
1.178951e+00
1.224491e+00
1.180439e+00
1.225958e+00
1.224491e+00
1.273466e+00
1.225958e+00
1.274922e+00
1.180439e+00
1.225958e+00
1.181724e+00
1.227225e+00
1.225958e+00
1.274922e+00
1.227225e+00
1.276178e+00
1.181724e+00
1.227225e+00
1.182807e+00
1.228292e+00
1.227225e+00
1.276178e+00
1.228292e+00
1.277237e+00
1.182807e+00
1.228292e+00
1.183690e+00
1.229163e+00
1.228292e+00
1.277237e+00
1.229163e+00
1.278100e+00
1.183690e+00
1.229163e+00
1.184375e+00
1.229839e+00
1.229163e+00
1.278100e+00
1.229839e+00
1.278770e+00
1.184375e+00
1.229839e+00
1.184864e+00
1.230320e+00
1.229839e+00
1.278770e+00
1.230320e+00
1.279248e+00
1.184864e+00
1.230320e+00
1.185157e+00
1.230609e+00
1.230320e+00
1.279248e+00
1.230609e+00
1.279534e+00
1.185157e+00
1.230609e+00
1.185254e+00
1.230705e+00
1.230609e+00
1.279534e+00
1.230705e+00
1.279629e+00
</DataArray>
<DataArray type="Float32" Name="V3" format="ascii">
0.000000e+00
0.000000e+00
8.775513e-03
7.543234e-03
0.000000e+00
0.000000e+00
7.543234e-03
6.115972e-03
8.775513e-03
7.543234e-03
1.750914e-02
1.504668e-02
7.543234e-03
6.115972e-03
1.504668e-02
1.219467e-02
1.750914e-02
1.504668e-02
2.615874e-02
2.247064e-02
1.504668e-02
1.219467e-02
2.247064e-02
1.819904e-02
2.615874e-02
2.247064e-02
3.468231e-02
2.977549e-02
2.247064e-02
1.819904e-02
2.977549e-02
2.409226e-02
3.468231e-02
2.977549e-02
4.303769e-02
3.692175e-02
2.977549e-02
2.409226e-02
3.692175e-02
2.983797e-02
4.303769e-02
3.692175e-02
5.118261e-02
4.387017e-02
3.692175e-02
2.983797e-02
4.387017e-02
3.540045e-02
5.118261e-02
4.387017e-02
5.907454e-02
5.058174e-02
4.387017e-02
3.540045e-02
5.058174e-02
4.074485e-02
5.907454e-02
5.058174e-02
6.667055e-02
5.701773e-02
5.058174e-02
4.074485e-02
5.701773e-02
4.583739e-02
6.667055e-02
5.701773e-02
7.392717e-02
6.313976e-02
5.701773e-02
4.583739e-02
6.313976e-02
5.064573e-02
7.392717e-02
6.313976e-02
8.080009e-02
6.890977e-02
6.313976e-02
5.064573e-02
6.890977e-02
5.513925e-02
8.080009e-02
6.890977e-02
8.724393e-02
7.429008e-02
6.890977e-02
5.513925e-02
7.429008e-02
5.928941e-02
8.724393e-02
7.429008e-02
9.321185e-02
7.924333e-02
7.429008e-02
5.928941e-02
7.924333e-02
6.307019e-02
9.321185e-02
7.924333e-02
9.865522e-02
8.373248e-02
7.924333e-02
6.307019e-02
8.373248e-02
6.645843e-02
9.865522e-02
8.373248e-02
1.035234e-01
8.772068e-02
8.373248e-02
6.645843e-02
8.772068e-02
6.943410e-02
1.035234e-01
8.772068e-02
1.077636e-01
9.117106e-02
8.772068e-02
6.943410e-02
9.117106e-02
7.198036e-02
1.077636e-01
9.117106e-02
1.113218e-01
9.404638e-02
9.117106e-02
7.198036e-02
9.404638e-02
7.408311e-02
1.113218e-01
9.404638e-02
1.141438e-01
9.630844e-02
9.404638e-02
7.408311e-02
9.630844e-02
7.572955e-02
1.141438e-01
9.630844e-02
1.161796e-01
9.791713e-02
9.630844e-02
7.572955e-02
9.791713e-02
7.690487e-02
1.161796e-01
9.791713e-02
1.173900e-01
9.882953e-02
9.791713e-02
7.690487e-02
9.882953e-02
7.758587e-02
1.173900e-01
9.882953e-02
1.177584e-01
9.900127e-02
9.882953e-02
7.758587e-02
9.900127e-02
7.772975e-02
1.177584e-01
9.900127e-02
1.173092e-01
9.841973e-02
9.900127e-02
7.772975e-02
9.841973e-02
7.724283e-02
1.173092e-01
9.841973e-02
1.161952e-01
9.727927e-02
9.841973e-02
7.724283e-02
9.727927e-02
7.597798e-02
1.161952e-01
9.727927e-02
1.146127e-01
9.587499e-02
9.727927e-02
7.597798e-02
9.587499e-02
7.516922e-02
1.146127e-01
9.587499e-02
1.126971e-01
9.436796e-02
9.587499e-02
7.516922e-02
9.436796e-02
7.458280e-02
1.126971e-01
9.436796e-02
1.106079e-01
9.290204e-02
9.436796e-02
7.458280e-02
9.290204e-02
7.410212e-02
1.106079e-01
9.290204e-02
1.084064e-01
9.146805e-02
9.290204e-02
7.410212e-02
9.146805e-02
7.367042e-02
1.084064e-01
9.146805e-02
1.061319e-01
9.004192e-02
9.146805e-02
7.367042e-02
9.004192e-02
7.324555e-02
1.061319e-01
9.004192e-02
1.038050e-01
8.860014e-02
9.004192e-02
7.324555e-02
8.860014e-02
7.279249e-02
1.038050e-01
8.860014e-02
1.014366e-01
8.712425e-02
8.860014e-02
7.279249e-02
8.712425e-02
7.228261e-02
1.014366e-01
8.712425e-02
9.903258e-02
8.560023e-02
8.712425e-02
7.228261e-02
8.560023e-02
7.169349e-02
9.903258e-02
8.560023e-02
9.659508e-02
8.401757e-02
8.560023e-02
7.169349e-02
8.401757e-02
7.100834e-02
9.659508e-02
8.401757e-02
9.412448e-02
8.236850e-02
8.401757e-02
7.100834e-02
8.236850e-02
7.021522e-02
9.412448e-02
8.236850e-02
9.161998e-02
8.064743e-02
8.236850e-02
7.021522e-02
8.064743e-02
6.930623e-02
9.161998e-02
8.064743e-02
8.908025e-02
7.885051e-02
8.064743e-02
6.930623e-02
7.885051e-02
6.827668e-02
8.908025e-02
7.885051e-02
8.650371e-02
7.697535e-02
7.885051e-02
6.827668e-02
7.697535e-02
6.712449e-02
8.650371e-02
7.697535e-02
8.388886e-02
7.502076e-02
7.697535e-02
6.712449e-02
7.502076e-02
6.584954e-02
8.388886e-02
7.502076e-02
8.123434e-02
7.298649e-02
7.502076e-02
6.584954e-02
7.298649e-02
6.445326e-02
8.123434e-02
7.298649e-02
7.853908e-02
7.087310e-02
7.298649e-02
6.445326e-02
7.087310e-02
6.293822e-02
7.853908e-02
7.087310e-02
7.580231e-02
6.868180e-02
7.087310e-02
6.293822e-02
6.868180e-02
6.130787e-02
7.580231e-02
6.868180e-02
7.302358e-02
6.641429e-02
6.868180e-02
6.130787e-02
6.641429e-02
5.956625e-02
7.302358e-02
6.641429e-02
7.020277e-02
6.407270e-02
6.641429e-02
5.956625e-02
6.407270e-02
5.771788e-02
7.020277e-02
6.407270e-02
6.734008e-02
6.165947e-02
6.407270e-02
5.771788e-02
6.165947e-02
5.576754e-02
6.734008e-02
6.165947e-02
6.443599e-02
5.917730e-02
6.165947e-02
5.576754e-02
5.917730e-02
5.372022e-02
6.443599e-02
5.917730e-02
6.149124e-02
5.662908e-02
5.917730e-02
5.372022e-02
5.662908e-02
5.158101e-02
6.149124e-02
5.662908e-02
5.850681e-02
5.401784e-02
5.662908e-02
5.158101e-02
5.401784e-02
4.935504e-02
5.850681e-02
5.401784e-02
5.548391e-02
5.134675e-02
5.401784e-02
4.935504e-02
5.134675e-02
4.704745e-02
5.548391e-02
5.134675e-02
5.242391e-02
4.861902e-02
5.134675e-02
4.704745e-02
4.861902e-02
4.466334e-02
5.242391e-02
4.861902e-02
4.932838e-02
4.583795e-02
4.861902e-02
4.466334e-02
4.583795e-02
4.220777e-02
4.932838e-02
4.583795e-02
4.619900e-02
4.300688e-02
4.583795e-02
4.220777e-02
4.300688e-02
3.968570e-02
4.619900e-02
4.300688e-02
4.303760e-02
4.012914e-02
4.300688e-02
3.968570e-02
4.012914e-02
3.710205e-02
4.303760e-02
4.012914e-02
3.984611e-02
3.720810e-02
4.012914e-02
3.710205e-02
3.720810e-02
3.446163e-02
3.984611e-02
3.720810e-02
3.662656e-02
3.424714e-02
3.720810e-02
3.446163e-02
3.424714e-02
3.176917e-02
3.662656e-02
3.424714e-02
3.338105e-02
3.124963e-02
3.424714e-02
3.176917e-02
3.124963e-02
2.902934e-02
3.338105e-02
3.124963e-02
3.011177e-02
2.821892e-02
3.124963e-02
2.902934e-02
2.821892e-02
2.624670e-02
3.011177e-02
2.821892e-02
2.682094e-02
2.515839e-02
2.821892e-02
2.624670e-02
2.515839e-02
2.342575e-02
2.682094e-02
2.515839e-02
2.351086e-02
2.207137e-02
2.515839e-02
2.342575e-02
2.207137e-02
2.057092e-02
2.351086e-02
2.207137e-02
2.018384e-02
1.896121e-02
2.207137e-02
2.057092e-02
1.896121e-02
1.768660e-02
2.018384e-02
1.896121e-02
1.684225e-02
1.583123e-02
1.896121e-02
1.768660e-02
1.583123e-02
1.477709e-02
1.684225e-02
1.583123e-02
1.348848e-02
1.268476e-02
1.583123e-02
1.477709e-02
1.268476e-02
1.184667e-02
1.348848e-02
1.268476e-02
1.012493e-02
9.525097e-03
1.268476e-02
1.184667e-02
9.525097e-03
8.899557e-03
1.012493e-02
9.525097e-03
6.754039e-03
6.355552e-03
9.525097e-03
8.899557e-03
6.355552e-03
5.939962e-03
6.754039e-03
6.355552e-03
3.378246e-03
3.179422e-03
6.355552e-03
5.939962e-03
3.179422e-03
2.972057e-03
3.378246e-03
3.179422e-03
0.000000e+00
0.000000e+00
3.179422e-03
2.972057e-03
0.000000e+00
0.000000e+00
</DataArray>
<DataArray type="Float32" Name="V4" format="ascii">
8.500000e-01
9.250000e-01
8.500000e-01
9.250000e-01
9.250000e-01
1.000000e+00