<?xml version="1.0"?>
<VTKFile type="UnstructuredGrid" version="0.1" byte_order="LittleEndian" compressor="vtkZLibDataCompressor">
<UnstructuredGrid>
<Piece NumberOfPoints="504" NumberOfCells="126">
<Points>
<DataArray type="Float32" NumberOfComponents="3" format="ascii">
0.000000e+00 4.214850e-01 0.000000e+00
0.000000e+00 4.455066e-01 0.000000e+00
3.911912e-02 4.214932e-01 0.000000e+00
3.911593e-02 4.455084e-01 0.000000e+00
0.000000e+00 4.455066e-01 0.000000e+00
0.000000e+00 4.737500e-01 0.000000e+00
3.911593e-02 4.455084e-01 0.000000e+00
3.911491e-02 4.737500e-01 0.000000e+00
3.911912e-02 4.214932e-01 0.000000e+00
3.911593e-02 4.455084e-01 0.000000e+00
7.823720e-02 4.215063e-01 0.000000e+00
7.823075e-02 4.455154e-01 0.000000e+00
3.911593e-02 4.455084e-01 0.000000e+00
3.911491e-02 4.737500e-01 0.000000e+00
7.823075e-02 4.455154e-01 0.000000e+00
7.822862e-02 4.737500e-01 0.000000e+00
7.823720e-02 4.215063e-01 0.000000e+00
7.823075e-02 4.455154e-01 0.000000e+00
1.173528e-01 4.215278e-01 0.000000e+00
1.173431e-01 4.455271e-01 0.000000e+00
7.823075e-02 4.455154e-01 0.000000e+00
7.822862e-02 4.737500e-01 0.000000e+00
1.173431e-01 4.455271e-01 0.000000e+00
1.173399e-01 4.737500e-01 0.000000e+00
1.173528e-01 4.215278e-01 0.000000e+00
1.173431e-01 4.455271e-01 0.000000e+00
1.564646e-01 4.215580e-01 0.000000e+00
1.564517e-01 4.455434e-01 0.000000e+00
1.173431e-01 4.455271e-01 0.000000e+00
1.173399e-01 4.737500e-01 0.000000e+00
1.564517e-01 4.455434e-01 0.000000e+00
1.564475e-01 4.737500e-01 0.000000e+00
1.564646e-01 4.215580e-01 0.000000e+00
1.564517e-01 4.455434e-01 0.000000e+00
1.955714e-01 4.215967e-01 0.000000e+00
1.955554e-01 4.455644e-01 0.000000e+00
1.564517e-01 4.455434e-01 0.000000e+00
1.564475e-01 4.737500e-01 0.000000e+00
1.955554e-01 4.455644e-01 0.000000e+00
1.955501e-01 4.737500e-01 0.000000e+00
1.955714e-01 4.215967e-01 0.000000e+00
1.955554e-01 4.455644e-01 0.000000e+00
2.346719e-01 4.216441e-01 0.000000e+00
2.346528e-01 4.455900e-01 0.000000e+00
1.955554e-01 4.455644e-01 0.000000e+00
1.955501e-01 4.737500e-01 0.000000e+00
2.346528e-01 4.455900e-01 0.000000e+00
2.346466e-01 4.737500e-01 0.000000e+00
2.346719e-01 4.216441e-01 0.000000e+00
2.346528e-01 4.455900e-01 0.000000e+00
2.737649e-01 4.216999e-01 0.000000e+00
2.737428e-01 4.456202e-01 0.000000e+00
2.346528e-01 4.455900e-01 0.000000e+00
2.346466e-01 4.737500e-01 0.000000e+00
2.737428e-01 4.456202e-01 0.000000e+00
2.737356e-01 4.737500e-01 0.000000e+00
2.737649e-01 4.216999e-01 0.000000e+00
2.737428e-01 4.456202e-01 0.000000e+00
3.128490e-01 4.217643e-01 0.000000e+00
3.128239e-01 4.456551e-01 0.000000e+00
2.737428e-01 4.456202e-01 0.000000e+00
2.737356e-01 4.737500e-01 0.000000e+00
3.128239e-01 4.456551e-01 0.000000e+00
3.128159e-01 4.737500e-01 0.000000e+00
3.128490e-01 4.217643e-01 0.000000e+00
3.128239e-01 4.456551e-01 0.000000e+00
3.519230e-01 4.218371e-01 0.000000e+00
3.518950e-01 4.456945e-01 0.000000e+00
3.128239e-01 4.456551e-01 0.000000e+00
3.128159e-01 4.737500e-01 0.000000e+00
3.518950e-01 4.456945e-01 0.000000e+00
3.518862e-01 4.737500e-01 0.000000e+00
3.519230e-01 4.218371e-01 0.000000e+00
3.518950e-01 4.456945e-01 0.000000e+00
3.909854e-01 4.219183e-01 0.000000e+00
3.909546e-01 4.457384e-01 0.000000e+00
3.518950e-01 4.456945e-01 0.000000e+00
3.518862e-01 4.737500e-01 0.000000e+00
3.909546e-01 4.457384e-01 0.000000e+00
3.909452e-01 4.737500e-01 0.000000e+00
3.909854e-01 4.219183e-01 0.000000e+00
3.909546e-01 4.457384e-01 0.000000e+00
4.300349e-01 4.220078e-01 0.000000e+00
4.300015e-01 4.457869e-01 0.000000e+00
3.909546e-01 4.457384e-01 0.000000e+00
3.909452e-01 4.737500e-01 0.000000e+00
4.300015e-01 4.457869e-01 0.000000e+00
4.299915e-01 4.737500e-01 0.000000e+00
4.300349e-01 4.220078e-01 0.000000e+00
4.300015e-01 4.457869e-01 0.000000e+00
4.690700e-01 4.221056e-01 0.000000e+00
4.690342e-01 4.458398e-01 0.000000e+00
4.300015e-01 4.457869e-01 0.000000e+00
4.299915e-01 4.737500e-01 0.000000e+00
4.690342e-01 4.458398e-01 0.000000e+00
4.690237e-01 4.737500e-01 0.000000e+00
4.690700e-01 4.221056e-01 0.000000e+00
4.690342e-01 4.458398e-01 0.000000e+00
5.080895e-01 4.222116e-01 0.000000e+00
5.080513e-01 4.458972e-01 0.000000e+00
4.690342e-01 4.458398e-01 0.000000e+00
4.690237e-01 4.737500e-01 0.000000e+00
5.080513e-01 4.458972e-01 0.000000e+00
5.080406e-01 4.737500e-01 0.000000e+00
5.080895e-01 4.222116e-01 0.000000e+00
5.080513e-01 4.458972e-01 0.000000e+00
5.470917e-01 4.223257e-01 0.000000e+00
5.470514e-01 4.459590e-01 0.000000e+00
5.080513e-01 4.458972e-01 0.000000e+00
5.080406e-01 4.737500e-01 0.000000e+00
5.470514e-01 4.459590e-01 0.000000e+00
5.470405e-01 4.737500e-01 0.000000e+00
5.470917e-01 4.223257e-01 0.000000e+00
5.470514e-01 4.459590e-01 0.000000e+00
5.860751e-01 4.224479e-01 0.000000e+00
5.860330e-01 4.460252e-01 0.000000e+00
5.470514e-01 4.459590e-01 0.000000e+00
5.470405e-01 4.737500e-01 0.000000e+00
5.860330e-01 4.460252e-01 0.000000e+00
5.860222e-01 4.737500e-01 0.000000e+00
5.860751e-01 4.224479e-01 0.000000e+00
5.860330e-01 4.460252e-01 0.000000e+00
6.250382e-01 4.225780e-01 0.000000e+00
6.249945e-01 4.460957e-01 0.000000e+00
5.860330e-01 4.460252e-01 0.000000e+00
5.860222e-01 4.737500e-01 0.000000e+00
6.249945e-01 4.460957e-01 0.000000e+00
6.249841e-01 4.737500e-01 0.000000e+00
6.250382e-01 4.225780e-01 0.000000e+00
6.249945e-01 4.460957e-01 0.000000e+00
6.639794e-01 4.227160e-01 0.000000e+00
6.639344e-01 4.461705e-01 0.000000e+00
6.249945e-01 4.460957e-01 0.000000e+00
6.249841e-01 4.737500e-01 0.000000e+00
6.639344e-01 4.461705e-01 0.000000e+00
6.639247e-01 4.737500e-01 0.000000e+00
6.639794e-01 4.227160e-01 0.000000e+00
6.639344e-01 4.461705e-01 0.000000e+00
7.028970e-01 4.228618e-01 0.000000e+00
7.028511e-01 4.462495e-01 0.000000e+00
6.639344e-01 4.461705e-01 0.000000e+00
6.639247e-01 4.737500e-01 0.000000e+00
7.028511e-01 4.462495e-01 0.000000e+00
7.028425e-01 4.737500e-01 0.000000e+00
7.028970e-01 4.228618e-01 0.000000e+00
7.028511e-01 4.462495e-01 0.000000e+00
7.417892e-01 4.230152e-01 0.000000e+00
7.417430e-01 4.463327e-01 0.000000e+00
7.028511e-01 4.462495e-01 0.000000e+00
7.028425e-01 4.737500e-01 0.000000e+00
7.417430e-01 4.463327e-01 0.000000e+00
7.417359e-01 4.737500e-01 0.000000e+00
7.417892e-01 4.230152e-01 0.000000e+00
7.417430e-01 4.463327e-01 0.000000e+00
7.806542e-01 4.231763e-01 0.000000e+00
7.806083e-01 4.464201e-01 0.000000e+00
7.417430e-01 4.463327e-01 0.000000e+00
7.417359e-01 4.737500e-01 0.000000e+00
7.806083e-01 4.464201e-01 0.000000e+00
7.806033e-01 4.737500e-01 0.000000e+00
7.806542e-01 4.231763e-01 0.000000e+00
7.806083e-01 4.464201e-01 0.000000e+00
8.194902e-01 4.233448e-01 0.000000e+00
8.194453e-01 4.465116e-01 0.000000e+00
7.806083e-01 4.464201e-01 0.000000e+00
7.806033e-01 4.737500e-01 0.000000e+00
8.194453e-01 4.465116e-01 0.000000e+00
8.194431e-01 4.737500e-01 0.000000e+00
8.194902e-01 4.233448e-01 0.000000e+00
8.194453e-01 4.465116e-01 0.000000e+00
8.582951e-01 4.235208e-01 0.000000e+00
8.582521e-01 4.466072e-01 0.000000e+00
8.194453e-01 4.465116e-01 0.000000e+00
8.194431e-01 4.737500e-01 0.000000e+00
8.582521e-01 4.466072e-01 0.000000e+00
8.582537e-01 4.737500e-01 0.000000e+00
8.582951e-01 4.235208e-01 0.000000e+00
8.582521e-01 4.466072e-01 0.000000e+00
8.970669e-01 4.237039e-01 0.000000e+00
8.970270e-01 4.467069e-01 0.000000e+00
8.582521e-01 4.466072e-01 0.000000e+00
8.582537e-01 4.737500e-01 0.000000e+00
8.970270e-01 4.467069e-01 0.000000e+00
8.970335e-01 4.737500e-01 0.000000e+00
8.970669e-01 4.237039e-01 0.000000e+00
8.970270e-01 4.467069e-01 0.000000e+00
9.358034e-01 4.238943e-01 0.000000e+00
9.357680e-01 4.468105e-01 0.000000e+00
8.970270e-01 4.467069e-01 0.000000e+00
8.970335e-01 4.737500e-01 0.000000e+00
9.357680e-01 4.468105e-01 0.000000e+00
9.357808e-01 4.737500e-01 0.000000e+00
9.358034e-01 4.238943e-01 0.000000e+00
9.357680e-01 4.468105e-01 0.000000e+00
9.745022e-01 4.240917e-01 0.000000e+00
9.744732e-01 4.469182e-01 0.000000e+00
9.357680e-01 4.468105e-01 0.000000e+00
9.357808e-01 4.737500e-01 0.000000e+00
9.744732e-01 4.469182e-01 0.000000e+00
9.744942e-01 4.737500e-01 0.000000e+00
9.745022e-01 4.240917e-01 0.000000e+00
9.744732e-01 4.469182e-01 0.000000e+00
1.013161e+00 4.242960e-01 0.000000e+00
1.013141e+00 4.470299e-01 0.000000e+00
9.744732e-01 4.469182e-01 0.000000e+00
9.744942e-01 4.737500e-01 0.000000e+00
1.013141e+00 4.470299e-01 0.000000e+00
1.013172e+00 4.737500e-01 0.000000e+00
1.013161e+00 4.242960e-01 0.000000e+00
1.013141e+00 4.470299e-01 0.000000e+00
1.051776e+00 4.245072e-01 0.000000e+00
1.051768e+00 4.471456e-01 0.000000e+00
1.013141e+00 4.470299e-01 0.000000e+00
1.013172e+00 4.737500e-01 0.000000e+00
1.051768e+00 4.471456e-01 0.000000e+00
1.051813e+00 4.737500e-01 0.000000e+00
1.051776e+00 4.245072e-01 0.000000e+00
1.051768e+00 4.471456e-01 0.000000e+00
1.090346e+00 4.247251e-01 0.000000e+00
1.090353e+00 4.472655e-01 0.000000e+00
1.051768e+00 4.471456e-01 0.000000e+00
1.051813e+00 4.737500e-01 0.000000e+00
1.090353e+00 4.472655e-01 0.000000e+00
1.090416e+00 4.737500e-01 0.000000e+00
1.090346e+00 4.247251e-01 0.000000e+00
1.090353e+00 4.472655e-01 0.000000e+00
1.128867e+00 4.249498e-01 0.000000e+00
1.128895e+00 4.473894e-01 0.000000e+00
1.090353e+00 4.472655e-01 0.000000e+00
1.090416e+00 4.737500e-01 0.000000e+00
1.128895e+00 4.473894e-01 0.000000e+00
1.128979e+00 4.737500e-01 0.000000e+00
1.128867e+00 4.249498e-01 0.000000e+00
1.128895e+00 4.473894e-01 0.000000e+00
1.167335e+00 4.251810e-01 0.000000e+00
1.167390e+00 4.475176e-01 0.000000e+00
1.128895e+00 4.473894e-01 0.000000e+00
1.128979e+00 4.737500e-01 0.000000e+00
1.167390e+00 4.475176e-01 0.000000e+00
1.167503e+00 4.737500e-01 0.000000e+00
1.167335e+00 4.251810e-01 0.000000e+00
1.167390e+00 4.475176e-01 0.000000e+00
1.205746e+00 4.254189e-01 0.000000e+00
1.205836e+00 4.476503e-01 0.000000e+00
1.167390e+00 4.475176e-01 0.000000e+00
1.167503e+00 4.737500e-01 0.000000e+00
1.205836e+00 4.476503e-01 0.000000e+00
1.205986e+00 4.737500e-01 0.000000e+00
1.205746e+00 4.254189e-01 0.000000e+00
[...]
<PointData>
<DataArray type="Float32" Name="V1" format="ascii">
2.339981e+02
9.277315e+01
2.340860e+02
9.286105e+01
9.622549e+01
2.538735e+01
9.626177e+01
2.542363e+01
2.341165e+02
9.280789e+01
2.343319e+02
9.302323e+01
9.629261e+01
2.541006e+01
9.639360e+01
2.551104e+01
2.344098e+02
9.293089e+01
2.347628e+02
9.328384e+01
9.645200e+01
2.548025e+01
9.662528e+01
2.565353e+01
2.348847e+02
9.314987e+01
2.353766e+02
9.364175e+01
9.671010e+01
2.560441e+01
9.695535e+01
2.584966e+01
2.355424e+02
9.346524e+01
2.361749e+02
9.409784e+01
9.706731e+01
2.578249e+01
9.738483e+01
2.610001e+01
2.363843e+02
9.387797e+01
2.371596e+02
9.465324e+01
9.752443e+01
2.601494e+01
9.791496e+01
2.640547e+01
2.374129e+02
9.438917e+01
2.383331e+02
9.530929e+01
9.808263e+01
2.630225e+01
9.854712e+01
2.676673e+01
2.386308e+02
9.500028e+01
2.396982e+02
9.606770e+01
9.874341e+01
2.664531e+01
9.928300e+01
2.718490e+01
2.400410e+02
9.571291e+01
2.412586e+02
9.693050e+01
9.950843e+01
2.704499e+01
1.001246e+02
2.766120e+01
2.416471e+02
9.652900e+01
2.430181e+02
9.789996e+01
1.003798e+02
2.750243e+01
1.010743e+02
2.819691e+01
2.434533e+02
9.745076e+01
2.449813e+02
9.897873e+01
1.013598e+02
2.801892e+01
1.021345e+02
2.879360e+01
2.454642e+02
9.848069e+01
2.471533e+02
1.001697e+02
1.024511e+02
2.859594e+01
1.033082e+02
2.945299e+01
2.476851e+02
9.962162e+01
2.495397e+02
1.014763e+02
1.036567e+02
2.923517e+01
1.045986e+02
3.017705e+01
2.501217e+02
1.008767e+02
2.521470e+02
1.029020e+02
1.049801e+02
2.993849e+01
1.060095e+02
3.096792e+01
2.527804e+02
1.022496e+02
2.549819e+02
1.044510e+02
1.064247e+02
3.070801e+01
1.075448e+02
3.182804e+01
2.556684e+02
1.037440e+02
2.580521e+02
1.061277e+02
1.079949e+02
3.154608e+01
1.092089e+02
3.276009e+01
2.587932e+02
1.053644e+02
2.613658e+02
1.079369e+02
1.096952e+02
3.245535e+01
1.110069e+02
3.376704e+01
2.621634e+02
1.071154e+02
2.649320e+02
1.098840e+02
1.115305e+02
3.343870e+01
1.129440e+02
3.485220e+01
2.657879e+02
1.090025e+02
2.687604e+02
1.119750e+02
1.135064e+02
3.449937e+01
1.150263e+02
3.601925e+01
2.696765e+02
1.110312e+02
2.728615e+02
1.142161e+02
1.156289e+02
3.564097e+01
1.172602e+02
3.727225e+01
2.738399e+02
1.132078e+02
2.772465e+02
1.166144e+02
1.179046e+02
3.686750e+01
1.196528e+02
3.861576e+01
2.782894e+02
1.155394e+02
2.819275e+02
1.191775e+02
1.203407e+02
3.818342e+01
1.222121e+02
4.005485e+01
2.830369e+02
1.180335e+02
2.869172e+02
1.219138e+02
1.229453e+02
3.959374e+01
1.249468e+02
4.159522e+01
2.880951e+02
1.206983e+02
2.922291e+02
1.248323e+02
1.257270e+02
4.110410e+01
1.278662e+02
4.324329e+01
2.934776e+02
1.235432e+02
2.978772e+02
1.279429e+02
1.286955e+02
4.272085e+01
1.309810e+02
4.500637e+01
2.991980e+02
1.265781e+02
3.038763e+02
1.312564e+02
1.318613e+02
4.445120e+01
1.343028e+02
4.689273e+01
3.052707e+02
1.298142e+02
3.102413e+02
1.347847e+02
1.352361e+02
4.630345e+01
1.378446e+02
4.891202e+01
3.117101e+02
1.332638e+02
3.169870e+02
1.385407e+02
1.388327e+02
4.828717e+01
1.416209e+02
5.107530e+01
3.185302e+02
1.369406e+02
3.241282e+02
1.425385e+02
1.426656e+02
5.041342e+01
1.456478e+02
5.339562e+01
3.257443e+02
1.408599e+02
3.316783e+02
1.467938e+02
1.467506e+02
5.269532e+01
1.499437e+02
5.588840e+01
3.333642e+02
1.450389e+02
3.396489e+02
1.513236e+02
1.511058e+02
5.514841e+01
1.545295e+02
5.857212e+01
3.413991e+02
1.494971e+02
3.480486e+02
1.561466e+02
1.557513e+02
5.779131e+01
1.594291e+02
6.146914e+01
3.498540e+02
1.542566e+02
3.568812e+02
1.612838e+02
1.607100e+02
6.064673e+01
1.646701e+02
6.460685e+01
3.587281e+02
1.593428e+02
3.661432e+02
1.667579e+02
1.660081e+02
6.374253e+01
1.702849e+02
6.801926e+01
3.680115e+02
1.647851e+02
3.758208e+02
1.725945e+02
1.716759e+02
6.711347e+01
1.763116e+02
7.174910e+01
3.776819e+02
1.706178e+02
3.858856e+02
1.788214e+02
1.777483e+02
7.080336e+01
1.827957e+02
7.585072e+01
3.876998e+02
1.768813e+02
3.962881e+02
1.854696e+02
1.842660e+02
7.486830e+01
1.897920e+02
8.039430e+01
3.980014e+02
1.836231e+02
4.069506e+02
1.925724e+02
1.912765e+02
7.938121e+01
1.973671e+02
8.547176e+01
4.084904e+02
1.908993e+02
4.177564e+02
2.001653e+02
1.988347e+02
8.443862e+01
2.056017e+02
9.120561e+01
4.190274e+02
1.987751e+02
4.285369e+02
2.082846e+02
2.070017e+02
9.017136e+01
2.145931e+02
9.776282e+01
4.294149e+02
2.073265e+02
4.390558e+02
2.169674e+02
2.158393e+02
9.676247e+01
2.244550e+02
1.053782e+02
4.393761e+02
2.166441e+02
4.489903e+02
2.262583e+02
2.253886e+02
1.044812e+02
2.353073e+02
1.143998e+02
4.485076e+02
2.268633e+02
4.579077e+02
2.362635e+02
2.356020e+02
1.137632e+02
2.472425e+02
1.254036e+02
4.561222e+02
2.383240e+02
4.652546e+02
2.474564e+02
2.461608e+02
1.254616e+02
2.602804e+02
1.395812e+02
4.605820e+02
2.523494e+02
4.704725e+02
2.622399e+02
2.554327e+02
1.424908e+02
2.745308e+02
1.615888e+02
4.627457e+02
2.711089e+02
4.738432e+02
2.822064e+02
2.682182e+02
1.701905e+02
2.860216e+02
1.879939e+02
4.694360e+02
2.861838e+02
4.805966e+02
2.973444e+02
2.834810e+02
1.876710e+02
2.966787e+02
2.008687e+02
4.800491e+02
2.978129e+02
4.928940e+02
3.106578e+02
2.968912e+02
2.006056e+02
3.093120e+02
2.130264e+02
4.939352e+02
3.094676e+02
5.078839e+02
3.234163e+02
3.104294e+02
2.122326e+02
3.221539e+02
2.239571e+02
5.098719e+02
3.212424e+02
5.244269e+02
3.357974e+02
3.238093e+02
2.228207e+02
3.348491e+02
2.338604e+02
5.269915e+02
3.330078e+02
5.417272e+02
3.477435e+02
3.368418e+02
2.325041e+02
3.471896e+02
2.428519e+02
5.446260e+02
3.445861e+02
5.591798e+02
3.591400e+02
3.493776e+02
2.413679e+02
3.590159e+02
2.510062e+02
5.622387e+02
3.558007e+02
5.763054e+02
3.698674e+02
3.612879e+02
2.494688e+02
3.701931e+02
2.583740e+02
5.793916e+02
3.664925e+02
5.927170e+02
3.798179e+02
3.724601e+02
2.568433e+02
3.806065e+02
2.649897e+02
5.957255e+02
3.765249e+02
6.080996e+02
3.888989e+02
3.827971e+02
2.635140e+02
3.901588e+02
2.708756e+02
6.109459e+02
3.857824e+02
6.221972e+02
3.970336e+02
3.922162e+02
2.694930e+02
3.987689e+02
2.760457e+02
6.248129e+02
3.941695e+02
6.348025e+02
4.041592e+02
4.006481e+02
2.747859e+02
4.063701e+02
2.805080e+02
6.371328e+02
4.016083e+02
6.457499e+02
4.102254e+02
4.080357e+02
2.793941e+02
4.129083e+02
2.842667e+02
6.477512e+02
4.080354e+02
6.549087e+02
4.151928e+02
4.143327e+02
2.833161e+02
4.183401e+02
2.873235e+02
6.565471e+02
4.134007e+02
6.621781e+02
4.190317e+02
4.195024e+02
2.865494e+02
4.226320e+02
2.896791e+02
6.634280e+02
4.176651e+02
6.674834e+02
4.217206e+02
4.235165e+02
2.890909e+02
4.257587e+02
2.913331e+02
6.683265e+02
4.207990e+02
6.707728e+02
4.232454e+02
4.263541e+02
2.909375e+02
4.277022e+02
2.922855e+02
6.711972e+02
4.227815e+02
6.720148e+02
4.235991e+02
4.280016e+02
2.920868e+02
4.284514e+02
2.925365e+02
</DataArray>
<DataArray type="Float32" Name="V2" format="ascii">
4.214850e-01
4.455066e-01
4.223375e-01
4.463451e-01
4.455066e-01
4.737500e-01
4.463451e-01
4.745779e-01
4.223375e-01
4.463451e-01
4.248821e-01
4.488610e-01
4.463451e-01
4.745779e-01
4.488610e-01
4.770605e-01
4.248821e-01
4.488610e-01
4.291189e-01
4.530503e-01
4.488610e-01
4.770605e-01
4.530503e-01
4.811941e-01
4.291189e-01
4.530503e-01
4.350420e-01
4.589069e-01
4.530503e-01
4.811941e-01
4.589069e-01
4.869730e-01
4.350420e-01
4.589069e-01
4.426429e-01
4.664225e-01
4.589069e-01
4.869730e-01
4.664225e-01
4.943888e-01
4.426429e-01
4.664225e-01
4.519107e-01
4.755863e-01
4.664225e-01
4.943888e-01
4.755863e-01
5.034309e-01
4.519107e-01
4.755863e-01
4.628322e-01
4.863852e-01
4.755863e-01
5.034309e-01
4.863852e-01
5.140864e-01
4.628322e-01
4.863852e-01
4.753916e-01
4.988037e-01
4.863852e-01
5.140864e-01
4.988037e-01
5.263400e-01
4.753916e-01
4.988037e-01
4.895710e-01
5.128240e-01
4.988037e-01
5.263400e-01
5.128240e-01
5.401742e-01
4.895710e-01
5.128240e-01
5.053499e-01
5.284259e-01
5.128240e-01
5.401742e-01
5.284259e-01
5.555690e-01
5.053499e-01
5.284259e-01
5.227058e-01
5.455871e-01
5.284259e-01
5.555690e-01
5.455871e-01
5.725023e-01
5.227058e-01
5.455871e-01
5.416134e-01
5.642827e-01
5.455871e-01
5.725023e-01
5.642827e-01
5.909498e-01
5.416134e-01
5.642827e-01
5.620456e-01
5.844857e-01
5.642827e-01
5.909498e-01
5.844857e-01
6.108847e-01
5.620456e-01
5.844857e-01
5.839727e-01
6.061670e-01
5.844857e-01
6.108847e-01
6.061670e-01
6.322783e-01
5.839727e-01
6.061670e-01
6.073629e-01
6.292950e-01
6.061670e-01
6.322783e-01
6.292950e-01
6.550994e-01
6.073629e-01
6.292950e-01
6.321822e-01
6.538361e-01
6.292950e-01
6.550994e-01
6.538361e-01
6.793149e-01
6.321822e-01
6.538361e-01
6.583943e-01
6.797546e-01
6.538361e-01
6.793149e-01
6.797546e-01
7.048896e-01
6.583943e-01
6.797546e-01
6.859609e-01
7.070126e-01
6.797546e-01
7.048896e-01
7.070126e-01
7.317859e-01
6.859609e-01
7.070126e-01
7.148415e-01
7.355700e-01
7.070126e-01
7.317859e-01
7.355700e-01
7.599646e-01
7.148415e-01
7.355700e-01
7.449935e-01
7.653848e-01
7.355700e-01
7.599646e-01
7.653848e-01
7.893841e-01
7.449935e-01
7.653848e-01
7.763725e-01
7.964130e-01
7.653848e-01
7.893841e-01
7.964130e-01
8.200011e-01
7.763725e-01
7.964130e-01
8.089317e-01
8.286087e-01
7.964130e-01
8.200011e-01
8.286087e-01
8.517703e-01
8.089317e-01
8.286087e-01
8.426226e-01
8.619240e-01
8.286087e-01
8.517703e-01
8.619240e-01
8.846445e-01
8.426226e-01
8.619240e-01
8.773947e-01
8.963091e-01
8.619240e-01
8.846445e-01
8.963091e-01
9.185747e-01
8.773947e-01
8.963091e-01
9.131956e-01
9.317125e-01
8.963091e-01
9.185747e-01
9.317125e-01
9.535104e-01
9.131956e-01
9.317125e-01
9.499711e-01
9.680808e-01
9.317125e-01
9.535104e-01
9.680808e-01
9.893992e-01
9.499711e-01
9.680808e-01
9.876649e-01
1.005359e+00
9.680808e-01
9.893992e-01
1.005359e+00
1.026187e+00
9.876649e-01
1.005359e+00
1.026219e+00
1.043491e+00
1.005359e+00
1.026187e+00
1.043491e+00
1.063819e+00
1.026219e+00
1.043491e+00
1.065575e+00
1.082418e+00
1.043491e+00
1.063819e+00
1.082418e+00
1.102238e+00
1.065575e+00
1.082418e+00
1.105669e+00
1.122080e+00
1.082418e+00
1.102238e+00
1.122080e+00
1.141387e+00
1.105669e+00
1.122080e+00
1.146440e+00
1.162417e+00
1.122080e+00
1.141387e+00
1.162417e+00
1.181206e+00
1.146440e+00
1.162417e+00
1.187821e+00
1.203366e+00
1.162417e+00
1.181206e+00
1.203366e+00
1.221635e+00
1.187821e+00
1.203366e+00
1.229746e+00
1.244864e+00
1.203366e+00
1.221635e+00
1.244864e+00
1.262615e+00
1.229746e+00
1.244864e+00
1.272146e+00
1.286846e+00
1.244864e+00
1.262615e+00
1.286846e+00
1.304084e+00
1.272146e+00
1.286846e+00
1.314949e+00
1.329246e+00
1.286846e+00
1.304084e+00
1.329246e+00
1.345983e+00
1.314949e+00
1.329246e+00
1.358081e+00
1.371998e+00
1.329246e+00
1.345983e+00
1.371998e+00
1.388252e+00
1.358081e+00
1.371998e+00
1.401466e+00
1.415034e+00
1.371998e+00
1.388252e+00
1.415034e+00
1.430832e+00
1.401466e+00
1.415034e+00
1.445023e+00
1.458287e+00
1.415034e+00
1.430832e+00
1.458287e+00
1.473667e+00
1.445023e+00
1.458287e+00
1.488669e+00
1.501689e+00
1.458287e+00
1.473667e+00
1.501689e+00
1.516705e+00
1.488669e+00
1.501689e+00
1.532314e+00
1.545169e+00
1.501689e+00
1.516705e+00
1.545169e+00
1.559899e+00
1.532314e+00
1.545169e+00
1.575861e+00
1.588657e+00
1.545169e+00
1.559899e+00
1.588657e+00
1.603209e+00
1.575861e+00
1.588657e+00
1.619204e+00
1.632079e+00
1.588657e+00
1.603209e+00
1.632079e+00
1.646611e+00
1.619204e+00
1.632079e+00
1.662216e+00
1.675349e+00
1.632079e+00
1.646611e+00
1.675349e+00
1.690099e+00
1.662216e+00
1.675349e+00
1.704718e+00
1.718333e+00
1.675349e+00
1.690099e+00
1.718333e+00
1.733672e+00
1.704718e+00
1.718333e+00
1.746439e+00
1.760696e+00
1.718333e+00
1.733672e+00
1.760696e+00
1.776958e+00
1.746439e+00
1.760696e+00
1.786590e+00
1.801157e+00
1.760696e+00
1.776958e+00
1.801157e+00
1.817534e+00
1.786590e+00
1.801157e+00
1.824018e+00
1.838866e+00
1.801157e+00
1.817534e+00
1.838866e+00
1.855593e+00
1.824018e+00
1.838866e+00
1.858691e+00
1.874035e+00
1.838866e+00
1.855593e+00
1.874035e+00
1.891292e+00
1.858691e+00
1.874035e+00
1.890679e+00
1.906605e+00
1.874035e+00
1.891292e+00
1.906605e+00
1.924470e+00
1.890679e+00
1.906605e+00
1.920048e+00
1.936569e+00
1.906605e+00
1.924470e+00
1.936569e+00
1.955059e+00
1.920048e+00
1.936569e+00
1.946867e+00
1.963955e+00
1.936569e+00
1.955059e+00
1.963955e+00
1.983049e+00
1.946867e+00
1.963955e+00
1.971209e+00
1.988815e+00
1.963955e+00
1.983049e+00
1.988815e+00
2.008469e+00
1.971209e+00
1.988815e+00
1.993148e+00
2.011214e+00
1.988815e+00
2.008469e+00
2.011214e+00
2.031372e+00
1.993148e+00
2.011214e+00
2.012756e+00
2.031221e+00
2.011214e+00
2.031372e+00
2.031221e+00
2.051822e+00
2.012756e+00
2.031221e+00
2.030102e+00
2.048907e+00
2.031221e+00
2.051822e+00
2.048907e+00
2.069889e+00
2.030102e+00
2.048907e+00
2.045250e+00
2.064339e+00
2.048907e+00
2.069889e+00
2.064339e+00
2.085644e+00
2.045250e+00
2.064339e+00
2.058257e+00
2.077581e+00
2.064339e+00
2.085644e+00
2.077581e+00
2.099153e+00
2.058257e+00
2.077581e+00
2.069175e+00
2.088688e+00
2.077581e+00
2.099153e+00
2.088688e+00
2.110476e+00
2.069175e+00
2.088688e+00
2.078048e+00
2.097708e+00
2.088688e+00
2.110476e+00
2.097708e+00
2.119667e+00
2.078048e+00
2.097708e+00
2.084912e+00
2.104682e+00
2.097708e+00
2.119667e+00
2.104682e+00
2.126769e+00
2.084912e+00
2.104682e+00
2.089795e+00
2.109641e+00
2.104682e+00
2.126769e+00
2.109641e+00
2.131817e+00
2.089795e+00
2.109641e+00
2.092716e+00
2.112607e+00
2.109641e+00
2.131817e+00
2.112607e+00
2.134836e+00
2.092716e+00
2.112607e+00
2.093688e+00
2.113594e+00
2.112607e+00
2.134836e+00
2.113594e+00
2.135841e+00
</DataArray>
<DataArray type="Float32" Name="V3" format="ascii">
0.000000e+00
0.000000e+00
2.859884e-02
2.799694e-02
0.000000e+00
0.000000e+00
2.799694e-02
2.729184e-02
2.859884e-02
2.799694e-02
5.712960e-02
5.592640e-02
2.799694e-02
2.729184e-02
5.592640e-02
5.451688e-02
5.712960e-02
5.592640e-02
8.552382e-02
8.372070e-02
5.592640e-02
5.451688e-02
8.372070e-02
8.160839e-02
8.552382e-02
8.372070e-02
1.137135e-01
1.113125e-01
8.372070e-02
8.160839e-02
1.113125e-01
1.084998e-01
1.137135e-01
1.113125e-01
1.416307e-01
1.386346e-01
1.113125e-01
1.084998e-01
1.386346e-01
1.351247e-01
1.416307e-01
1.386346e-01
1.692081e-01
1.656202e-01
1.386346e-01
1.351247e-01
1.656202e-01
1.614170e-01
1.692081e-01
1.656202e-01
1.963784e-01
1.922029e-01
1.656202e-01
1.614170e-01
1.922029e-01
1.873111e-01
1.963784e-01
1.922029e-01
2.230751e-01
2.183166e-01
1.922029e-01
1.873111e-01
2.183166e-01
2.127418e-01
2.230751e-01
2.183166e-01
2.492319e-01
2.438959e-01
2.183166e-01
2.127418e-01
2.438959e-01
2.376444e-01
2.492319e-01
2.438959e-01
2.747836e-01
2.688760e-01
2.438959e-01
2.376444e-01
2.688760e-01
2.619548e-01
2.747836e-01
2.688760e-01
2.996652e-01
2.931928e-01
2.688760e-01
2.619548e-01
2.931928e-01
2.856096e-01
2.996652e-01
2.931928e-01
3.238128e-01
3.167827e-01
2.931928e-01
2.856096e-01
3.167827e-01
3.085461e-01
3.238128e-01
3.167827e-01
3.471632e-01
3.395834e-01
3.167827e-01
3.085461e-01
3.395834e-01
3.307025e-01
3.471632e-01
3.395834e-01
3.696541e-01
3.615332e-01
3.395834e-01
3.307025e-01
3.615332e-01
3.520179e-01
3.696541e-01
3.615332e-01
3.912244e-01
3.825714e-01
3.615332e-01
3.520179e-01
3.825714e-01
3.724324e-01
3.912244e-01
3.825714e-01
4.118139e-01
4.026385e-01
3.825714e-01
3.724324e-01
4.026385e-01
3.918870e-01
4.118139e-01
4.026385e-01
4.313635e-01
4.216759e-01
4.026385e-01
3.918870e-01
4.216759e-01
4.103240e-01
4.313635e-01
4.216759e-01
4.498154e-01
4.396266e-01
4.216759e-01
4.103240e-01
4.396266e-01
4.276868e-01
4.498154e-01
4.396266e-01
4.671132e-01
4.564344e-01
4.396266e-01
4.276868e-01
4.564344e-01
4.439200e-01
4.671132e-01
4.564344e-01
4.832016e-01
4.720448e-01
4.564344e-01
4.439200e-01
4.720448e-01
4.589698e-01
4.832016e-01
4.720448e-01
4.980269e-01
4.864046e-01
4.720448e-01
4.589698e-01
4.864046e-01
4.727835e-01
4.980269e-01
4.864046e-01
5.115368e-01
4.994620e-01
4.864046e-01
4.727835e-01
4.994620e-01
4.853101e-01
5.115368e-01
4.994620e-01
5.236805e-01
5.111668e-01
4.994620e-01
4.853101e-01
5.111668e-01
4.965001e-01
5.236805e-01
5.111668e-01
5.344089e-01
5.214705e-01
5.111668e-01
4.965001e-01
5.214705e-01
5.063055e-01
5.344089e-01
5.214705e-01
5.436745e-01
5.303261e-01
5.214705e-01
5.063055e-01
5.303261e-01
5.146803e-01
5.436745e-01
5.303261e-01
5.514316e-01
5.376886e-01
5.303261e-01
5.146803e-01
5.376886e-01
5.215800e-01
5.514316e-01
5.376886e-01
5.576360e-01
5.435146e-01
5.376886e-01
5.215800e-01
5.435146e-01
5.269621e-01
5.576360e-01
5.435146e-01
5.622456e-01
5.477625e-01
5.435146e-01
5.269621e-01
5.477625e-01
5.307862e-01
5.622456e-01
5.477625e-01
5.652200e-01
5.503928e-01
5.477625e-01
5.307862e-01
5.503928e-01
5.330136e-01
5.652200e-01
5.503928e-01
5.665206e-01
5.513679e-01
5.503928e-01
5.330136e-01
5.513679e-01
5.336081e-01
5.665206e-01
5.513679e-01
5.661107e-01
5.506522e-01
5.513679e-01
5.336081e-01
5.506522e-01
5.325355e-01
5.661107e-01
5.506522e-01
5.639558e-01
5.482123e-01
5.506522e-01
5.325355e-01
5.482123e-01
5.297641e-01
5.639558e-01
5.482123e-01
5.600227e-01
5.440168e-01
5.482123e-01
5.297641e-01
5.440168e-01
5.252646e-01
5.600227e-01
5.440168e-01
5.542806e-01
5.380364e-01
5.440168e-01
5.252646e-01
5.380364e-01
5.190103e-01
5.542806e-01
5.380364e-01
5.467003e-01
5.302440e-01
5.380364e-01
5.190103e-01
5.302440e-01
5.109774e-01
5.467003e-01
5.302440e-01
5.372544e-01
5.206150e-01
5.302440e-01
5.109774e-01
5.206150e-01
5.011450e-01
5.372544e-01
5.206150e-01
5.259172e-01
5.091266e-01
5.206150e-01
5.011450e-01
5.091266e-01
4.894953e-01
5.259172e-01
5.091266e-01
5.126646e-01
4.957583e-01
5.091266e-01
4.894953e-01
4.957583e-01
4.760140e-01
5.126646e-01
4.957583e-01
4.974742e-01
4.804919e-01
4.957583e-01
4.760140e-01
4.804919e-01
4.606906e-01
4.974742e-01
4.804919e-01
4.803250e-01
4.633110e-01
4.804919e-01
4.606906e-01
4.633110e-01
4.435188e-01
4.803250e-01
4.633110e-01
4.611974e-01
4.442014e-01
4.633110e-01
4.435188e-01
4.442014e-01
4.244975e-01
4.611974e-01
4.442014e-01
4.400748e-01
4.231514e-01
4.442014e-01
4.244975e-01
4.231514e-01
4.036321e-01
4.400748e-01
4.231514e-01
4.169468e-01
4.001560e-01
4.231514e-01
4.036321e-01
4.001560e-01
3.809362e-01
4.169468e-01
4.001560e-01
3.918308e-01
3.752335e-01
4.001560e-01
3.809362e-01
3.752335e-01
3.564218e-01
3.918308e-01
3.752335e-01
3.648771e-01
3.485099e-01
3.752335e-01
3.564218e-01
3.485099e-01
3.299148e-01
3.648771e-01
3.485099e-01
3.375007e-01
3.215632e-01
3.485099e-01
3.299148e-01
3.215632e-01
3.033452e-01
3.375007e-01
3.215632e-01
3.117287e-01
2.964794e-01
3.215632e-01
3.033452e-01
2.964794e-01
2.792262e-01
3.117287e-01
2.964794e-01
2.875049e-01
2.730444e-01
2.964794e-01
2.792262e-01
2.730444e-01
2.568212e-01
2.875049e-01
2.730444e-01
2.645802e-01
2.509995e-01
2.730444e-01
2.568212e-01
2.509995e-01
2.358517e-01
2.645802e-01
2.509995e-01
2.427339e-01
2.301015e-01
2.509995e-01
2.358517e-01
2.301015e-01
2.160654e-01
2.427339e-01
2.301015e-01
2.217743e-01
2.101358e-01
2.301015e-01
2.160654e-01
2.101358e-01
1.972364e-01
2.217743e-01
2.101358e-01
2.015380e-01
1.909190e-01
2.101358e-01
1.972364e-01
1.909190e-01
1.791689e-01
2.015380e-01
1.909190e-01
1.818874e-01
1.722978e-01
1.909190e-01
1.791689e-01
1.722978e-01
1.616977e-01
1.818874e-01
1.722978e-01
1.627079e-01
1.541453e-01
1.722978e-01
1.616977e-01
1.541453e-01
1.446868e-01
1.627079e-01
1.541453e-01
1.439046e-01
1.363583e-01
1.541453e-01
1.446868e-01
1.363583e-01
1.280257e-01
1.439046e-01
1.363583e-01
1.253991e-01
1.188532e-01
1.363583e-01
1.280257e-01
1.188532e-01
1.116267e-01
1.253991e-01
1.188532e-01
1.071271e-01
1.015630e-01
1.188532e-01
1.116267e-01
1.015630e-01
9.542097e-02
1.071271e-01
1.015630e-01
8.903597e-02
8.443450e-02
1.015630e-01
9.542097e-02
8.443450e-02
7.935522e-02
8.903597e-02
8.443450e-02
7.108223e-02
6.742542e-02
8.443450e-02
7.935522e-02
6.742542e-02
6.338879e-02
7.108223e-02
6.742542e-02
5.323002e-02
5.050217e-02
6.742542e-02
6.338879e-02
5.050217e-02
4.749088e-02
5.323002e-02
5.050217e-02
3.544914e-02
3.363780e-02
5.050217e-02
4.749088e-02
3.363780e-02
3.163816e-02
3.544914e-02
3.363780e-02
1.771358e-02
1.681011e-02
3.363780e-02
3.163816e-02
1.681011e-02
1.581269e-02
1.771358e-02
1.681011e-02
0.000000e+00
0.000000e+00
1.681011e-02
1.581269e-02
0.000000e+00
0.000000e+00
</DataArray>
<DataArray type="Float32" Name="V4" format="ascii">
8.500000e-01
9.250000e-01
8.500000e-01
9.250000e-01
9.250000e-01
1.000000e+00