<?xml version="1.0"?>
<VTKFile type="UnstructuredGrid" version="0.1" byte_order="LittleEndian" compressor="vtkZLibDataCompressor">
<UnstructuredGrid>
<Piece NumberOfPoints="504" NumberOfCells="126">
<Points>
<DataArray type="Float32" NumberOfComponents="3" format="ascii">
0.000000e+00 7.836968e-01 0.000000e+00
0.000000e+00 8.325224e-01 0.000000e+00
2.744934e-02 7.837100e-01 0.000000e+00
2.742421e-02 8.325301e-01 0.000000e+00
0.000000e+00 8.325224e-01 0.000000e+00
0.000000e+00 8.900000e-01 0.000000e+00
2.742421e-02 8.325301e-01 0.000000e+00
2.741853e-02 8.900000e-01 0.000000e+00
2.744934e-02 7.837100e-01 0.000000e+00
2.742421e-02 8.325301e-01 0.000000e+00
5.489795e-02 7.837468e-01 0.000000e+00
5.484884e-02 8.325529e-01 0.000000e+00
2.742421e-02 8.325301e-01 0.000000e+00
2.741853e-02 8.900000e-01 0.000000e+00
5.484884e-02 8.325529e-01 0.000000e+00
5.483859e-02 8.900000e-01 0.000000e+00
5.489795e-02 7.837468e-01 0.000000e+00
5.484884e-02 8.325529e-01 0.000000e+00
8.234482e-02 7.838085e-01 0.000000e+00
8.227444e-02 8.325916e-01 0.000000e+00
5.484884e-02 8.325529e-01 0.000000e+00
5.483859e-02 8.900000e-01 0.000000e+00
8.227444e-02 8.325916e-01 0.000000e+00
8.226197e-02 8.900000e-01 0.000000e+00
8.234482e-02 7.838085e-01 0.000000e+00
8.227444e-02 8.325916e-01 0.000000e+00
1.097888e-01 7.838956e-01 0.000000e+00
1.097016e-01 8.326469e-01 0.000000e+00
8.227444e-02 8.325916e-01 0.000000e+00
8.226197e-02 8.900000e-01 0.000000e+00
1.097016e-01 8.326469e-01 0.000000e+00
1.096907e-01 8.900000e-01 0.000000e+00
1.097888e-01 7.838956e-01 0.000000e+00
1.097016e-01 8.326469e-01 0.000000e+00
1.372285e-01 7.840090e-01 0.000000e+00
1.371310e-01 8.327201e-01 0.000000e+00
1.097016e-01 8.326469e-01 0.000000e+00
1.096907e-01 8.900000e-01 0.000000e+00
1.371310e-01 8.327201e-01 0.000000e+00
1.371276e-01 8.900000e-01 0.000000e+00
1.372285e-01 7.840090e-01 0.000000e+00
1.371310e-01 8.327201e-01 0.000000e+00
1.646619e-01 7.841496e-01 0.000000e+00
1.645637e-01 8.328127e-01 0.000000e+00
1.371310e-01 8.327201e-01 0.000000e+00
1.371276e-01 8.900000e-01 0.000000e+00
1.645637e-01 8.328127e-01 0.000000e+00
1.645759e-01 8.900000e-01 0.000000e+00
1.646619e-01 7.841496e-01 0.000000e+00
1.645637e-01 8.328127e-01 0.000000e+00
1.920861e-01 7.843188e-01 0.000000e+00
1.920009e-01 8.329270e-01 0.000000e+00
1.645637e-01 8.328127e-01 0.000000e+00
1.645759e-01 8.900000e-01 0.000000e+00
1.920009e-01 8.329270e-01 0.000000e+00
1.920403e-01 8.900000e-01 0.000000e+00
1.920861e-01 7.843188e-01 0.000000e+00
1.920009e-01 8.329270e-01 0.000000e+00
2.194975e-01 7.845181e-01 0.000000e+00
2.194443e-01 8.330657e-01 0.000000e+00
1.920009e-01 8.329270e-01 0.000000e+00
1.920403e-01 8.900000e-01 0.000000e+00
2.194443e-01 8.330657e-01 0.000000e+00
2.195268e-01 8.900000e-01 0.000000e+00
2.194975e-01 7.845181e-01 0.000000e+00
2.194443e-01 8.330657e-01 0.000000e+00
2.468906e-01 7.847490e-01 0.000000e+00
2.468959e-01 8.332323e-01 0.000000e+00
2.194443e-01 8.330657e-01 0.000000e+00
2.195268e-01 8.900000e-01 0.000000e+00
2.468959e-01 8.332323e-01 0.000000e+00
2.470431e-01 8.900000e-01 0.000000e+00
2.468906e-01 7.847490e-01 0.000000e+00
2.468959e-01 8.332323e-01 0.000000e+00
2.742583e-01 7.850131e-01 0.000000e+00
2.743582e-01 8.334306e-01 0.000000e+00
2.468959e-01 8.332323e-01 0.000000e+00
2.470431e-01 8.900000e-01 0.000000e+00
2.743582e-01 8.334306e-01 0.000000e+00
2.745996e-01 8.900000e-01 0.000000e+00
2.742583e-01 7.850131e-01 0.000000e+00
2.743582e-01 8.334306e-01 0.000000e+00
3.015906e-01 7.853110e-01 0.000000e+00
3.018339e-01 8.336649e-01 0.000000e+00
2.743582e-01 8.334306e-01 0.000000e+00
2.745996e-01 8.900000e-01 0.000000e+00
3.018339e-01 8.336649e-01 0.000000e+00
3.022090e-01 8.900000e-01 0.000000e+00
3.015906e-01 7.853110e-01 0.000000e+00
3.018339e-01 8.336649e-01 0.000000e+00
3.288739e-01 7.856422e-01 0.000000e+00
3.293263e-01 8.339393e-01 0.000000e+00
3.018339e-01 8.336649e-01 0.000000e+00
3.022090e-01 8.900000e-01 0.000000e+00
3.293263e-01 8.339393e-01 0.000000e+00
3.298875e-01 8.900000e-01 0.000000e+00
3.288739e-01 7.856422e-01 0.000000e+00
3.293263e-01 8.339393e-01 0.000000e+00
3.560902e-01 7.860030e-01 0.000000e+00
3.568377e-01 8.342568e-01 0.000000e+00
3.293263e-01 8.339393e-01 0.000000e+00
3.298875e-01 8.900000e-01 0.000000e+00
3.568377e-01 8.342568e-01 0.000000e+00
3.576546e-01 8.900000e-01 0.000000e+00
3.560902e-01 7.860030e-01 0.000000e+00
3.568377e-01 8.342568e-01 0.000000e+00
3.832153e-01 7.863849e-01 0.000000e+00
3.843689e-01 8.346176e-01 0.000000e+00
3.568377e-01 8.342568e-01 0.000000e+00
3.576546e-01 8.900000e-01 0.000000e+00
3.843689e-01 8.346176e-01 0.000000e+00
3.855332e-01 8.900000e-01 0.000000e+00
3.832153e-01 7.863849e-01 0.000000e+00
3.843689e-01 8.346176e-01 0.000000e+00
4.102183e-01 7.867699e-01 0.000000e+00
4.119165e-01 8.350155e-01 0.000000e+00
3.843689e-01 8.346176e-01 0.000000e+00
3.855332e-01 8.900000e-01 0.000000e+00
4.119165e-01 8.350155e-01 0.000000e+00
4.135483e-01 8.900000e-01 0.000000e+00
4.102183e-01 7.867699e-01 0.000000e+00
4.119165e-01 8.350155e-01 0.000000e+00
4.370598e-01 7.871251e-01 0.000000e+00
4.394677e-01 8.354318e-01 0.000000e+00
4.119165e-01 8.350155e-01 0.000000e+00
4.135483e-01 8.900000e-01 0.000000e+00
4.394677e-01 8.354318e-01 0.000000e+00
4.417246e-01 8.900000e-01 0.000000e+00
4.370598e-01 7.871251e-01 0.000000e+00
4.394677e-01 8.354318e-01 0.000000e+00
4.636919e-01 7.873921e-01 0.000000e+00
4.669912e-01 8.358233e-01 0.000000e+00
4.394677e-01 8.354318e-01 0.000000e+00
4.417246e-01 8.900000e-01 0.000000e+00
4.669912e-01 8.358233e-01 0.000000e+00
4.700802e-01 8.900000e-01 0.000000e+00
4.636919e-01 7.873921e-01 0.000000e+00
4.669912e-01 8.358233e-01 0.000000e+00
4.900577e-01 7.874734e-01 0.000000e+00
4.944213e-01 8.361007e-01 0.000000e+00
4.669912e-01 8.358233e-01 0.000000e+00
4.700802e-01 8.900000e-01 0.000000e+00
4.944213e-01 8.361007e-01 0.000000e+00
4.986163e-01 8.900000e-01 0.000000e+00
4.900577e-01 7.874734e-01 0.000000e+00
4.944213e-01 8.361007e-01 0.000000e+00
5.160832e-01 7.871950e-01 0.000000e+00
5.216424e-01 8.360654e-01 0.000000e+00
4.944213e-01 8.361007e-01 0.000000e+00
4.986163e-01 8.900000e-01 0.000000e+00
5.216424e-01 8.360654e-01 0.000000e+00
5.272994e-01 8.900000e-01 0.000000e+00
5.160832e-01 7.871950e-01 0.000000e+00
5.216424e-01 8.360654e-01 0.000000e+00
5.417526e-01 7.863525e-01 0.000000e+00
5.486254e-01 8.354620e-01 0.000000e+00
5.216424e-01 8.360654e-01 0.000000e+00
5.272994e-01 8.900000e-01 0.000000e+00
5.486254e-01 8.354620e-01 0.000000e+00
5.557961e-01 8.898339e-01 0.000000e+00
5.417526e-01 7.863525e-01 0.000000e+00
5.486254e-01 8.354620e-01 0.000000e+00
5.670541e-01 7.845575e-01 0.000000e+00
5.753437e-01 8.336397e-01 0.000000e+00
5.486254e-01 8.354620e-01 0.000000e+00
5.557961e-01 8.898339e-01 0.000000e+00
5.753437e-01 8.336397e-01 0.000000e+00
5.840742e-01 8.874708e-01 0.000000e+00
5.670541e-01 7.845575e-01 0.000000e+00
5.753437e-01 8.336397e-01 0.000000e+00
5.919546e-01 7.816770e-01 0.000000e+00
6.017994e-01 8.305254e-01 0.000000e+00
5.753437e-01 8.336397e-01 0.000000e+00
5.840742e-01 8.874708e-01 0.000000e+00
6.017994e-01 8.305254e-01 0.000000e+00
6.124196e-01 8.834828e-01 0.000000e+00
5.919546e-01 7.816770e-01 0.000000e+00
6.017994e-01 8.305254e-01 0.000000e+00
6.165096e-01 7.775718e-01 0.000000e+00
6.280734e-01 8.259976e-01 0.000000e+00
6.017994e-01 8.305254e-01 0.000000e+00
6.124196e-01 8.834828e-01 0.000000e+00
6.280734e-01 8.259976e-01 0.000000e+00
6.406668e-01 8.780338e-01 0.000000e+00
6.165096e-01 7.775718e-01 0.000000e+00
6.280734e-01 8.259976e-01 0.000000e+00
6.407321e-01 7.722473e-01 0.000000e+00
6.541305e-01 8.201036e-01 0.000000e+00
6.280734e-01 8.259976e-01 0.000000e+00
6.406668e-01 8.780338e-01 0.000000e+00
6.541305e-01 8.201036e-01 0.000000e+00
6.687189e-01 8.711982e-01 0.000000e+00
6.407321e-01 7.722473e-01 0.000000e+00
6.541305e-01 8.201036e-01 0.000000e+00
6.646229e-01 7.657295e-01 0.000000e+00
6.799049e-01 8.128932e-01 0.000000e+00
6.541305e-01 8.201036e-01 0.000000e+00
6.687189e-01 8.711982e-01 0.000000e+00
6.799049e-01 8.128932e-01 0.000000e+00
6.964833e-01 8.630209e-01 0.000000e+00
6.646229e-01 7.657295e-01 0.000000e+00
6.799049e-01 8.128932e-01 0.000000e+00
6.881701e-01 7.580574e-01 0.000000e+00
7.053349e-01 8.044224e-01 0.000000e+00
6.799049e-01 8.128932e-01 0.000000e+00
6.964833e-01 8.630209e-01 0.000000e+00
7.053349e-01 8.044224e-01 0.000000e+00
7.238787e-01 8.535498e-01 0.000000e+00
6.881701e-01 7.580574e-01 0.000000e+00
7.053349e-01 8.044224e-01 0.000000e+00
7.113545e-01 7.492735e-01 0.000000e+00
7.303681e-01 7.947488e-01 0.000000e+00
7.053349e-01 8.044224e-01 0.000000e+00
7.238787e-01 8.535498e-01 0.000000e+00
7.303681e-01 7.947488e-01 0.000000e+00
7.508361e-01 8.428379e-01 0.000000e+00
7.113545e-01 7.492735e-01 0.000000e+00
7.303681e-01 7.947488e-01 0.000000e+00
7.341531e-01 7.394208e-01 0.000000e+00
7.549608e-01 7.839296e-01 0.000000e+00
7.303681e-01 7.947488e-01 0.000000e+00
7.508361e-01 8.428379e-01 0.000000e+00
7.549608e-01 7.839296e-01 0.000000e+00
7.772987e-01 8.309413e-01 0.000000e+00
7.341531e-01 7.394208e-01 0.000000e+00
7.549608e-01 7.839296e-01 0.000000e+00
7.565414e-01 7.285425e-01 0.000000e+00
7.790762e-01 7.720210e-01 0.000000e+00
7.549608e-01 7.839296e-01 0.000000e+00
7.772987e-01 8.309413e-01 0.000000e+00
7.790762e-01 7.720210e-01 0.000000e+00
8.032199e-01 8.179177e-01 0.000000e+00
7.565414e-01 7.285425e-01 0.000000e+00
7.790762e-01 7.720210e-01 0.000000e+00
7.784951e-01 7.166818e-01 0.000000e+00
8.026829e-01 7.590772e-01 0.000000e+00
7.790762e-01 7.720210e-01 0.000000e+00
8.032199e-01 8.179177e-01 0.000000e+00
8.026829e-01 7.590772e-01 0.000000e+00
8.285621e-01 8.038243e-01 0.000000e+00
7.784951e-01 7.166818e-01 0.000000e+00
8.026829e-01 7.590772e-01 0.000000e+00
7.999903e-01 7.038809e-01 0.000000e+00
8.257540e-01 7.451504e-01 0.000000e+00
8.026829e-01 7.590772e-01 0.000000e+00
8.285621e-01 8.038243e-01 0.000000e+00
8.257540e-01 7.451504e-01 0.000000e+00
8.532946e-01 7.887165e-01 0.000000e+00
7.999903e-01 7.038809e-01 0.000000e+00
[...]
<PointData>
<DataArray type="Float32" Name="V1" format="ascii">
1.395267e+01
5.048478e+00
1.395812e+01
5.053923e+00
5.326824e+00
5.612533e-01
5.330444e+00
5.648730e-01
1.396006e+01
5.051712e+00
1.397375e+01
5.065403e+00
5.331798e+00
5.639500e-01
5.340883e+00
5.730346e-01
1.397808e+01
5.061206e+00
1.400085e+01
5.083982e+00
5.343724e+00
5.713322e-01
5.359105e+00
5.867128e-01
1.400682e+01
5.077989e+00
1.403834e+01
5.109513e+00
5.363228e+00
5.840806e-01
5.385103e+00
6.059553e-01
1.404543e+01
5.102250e+00
1.408518e+01
5.142005e+00
5.390430e+00
6.024282e-01
5.419116e+00
6.311141e-01
1.409255e+01
5.134280e+00
1.413980e+01
5.181528e+00
5.425525e+00
6.267150e-01
5.461524e+00
6.627130e-01
1.414625e+01
5.174524e+00
1.419995e+01
5.228231e+00
5.468807e+00
6.575026e-01
5.512865e+00
7.015601e-01
1.420374e+01
5.223640e+00
1.426248e+01
5.282384e+00
5.520716e+00
6.956100e-01
5.573947e+00
7.488415e-01
1.426115e+01
5.282601e+00
1.432301e+01
5.344464e+00
5.581893e+00
7.422859e-01
5.645928e+00
8.063206e-01
1.431317e+01
5.352829e+00
1.437560e+01
5.415263e+00
5.653266e+00
7.993713e-01
5.730488e+00
8.765932e-01
1.435263e+01
5.436370e+00
1.441231e+01
5.496055e+00
5.736151e+00
8.696092e-01
5.830030e+00
9.634878e-01
1.437007e+01
5.536118e+00
1.442277e+01
5.588821e+00
5.832392e+00
9.570804e-01
5.947974e+00
1.072663e+00
1.435331e+01
5.656061e+00
1.439379e+01
5.696543e+00
5.944489e+00
1.067918e+00
6.089126e+00
1.212555e+00
1.428722e+01
5.801498e+00
1.430928e+01
5.823554e+00
6.075705e+00
1.211454e+00
6.260149e+00
1.395898e+00
1.415401e+01
5.979111e+00
1.415084e+01
5.975940e+00
6.230011e+00
1.402182e+00
6.470119e+00
1.642290e+00
1.393453e+01
6.196710e+00
1.389979e+01
6.161975e+00
6.411606e+00
1.663228e+00
6.731027e+00
1.982649e+00
1.361168e+01
6.462310e+00
1.354186e+01
6.392486e+00
6.623338e+00
2.032691e+00
7.057822e+00
2.467175e+00
1.317649e+01
6.783894e+00
1.307429e+01
6.681696e+00
6.861317e+00
2.576951e+00
7.464422e+00
3.180055e+00
1.264380e+01
7.162913e+00
1.252074e+01
7.039850e+00
7.094694e+00
3.417136e+00
7.950663e+00
4.273106e+00
1.201096e+01
7.646970e+00
1.191950e+01
7.555507e+00
7.131026e+00
4.941923e+00
8.233508e+00
6.044405e+00
1.144158e+01
8.147800e+00
1.134713e+01
8.053350e+00
7.581678e+00
6.582342e+00
8.188297e+00
7.188961e+00
1.101102e+01
8.416579e+00
1.097991e+01
8.385468e+00
8.089585e+00
7.196403e+00
8.479372e+00
7.586191e+00
1.073634e+01
8.638507e+00
1.075067e+01
8.652834e+00
8.393403e+00
7.625749e+00
8.705053e+00
7.937399e+00
1.060128e+01
8.813180e+00
1.066299e+01
8.874894e+00
8.637731e+00
7.975595e+00
8.904779e+00
8.242643e+00
1.057312e+01
8.974786e+00
1.067470e+01
9.076367e+00
8.856213e+00
8.272346e+00
9.090813e+00
8.506946e+00
1.062382e+01
9.134141e+00
1.075500e+01
9.265316e+00
9.061300e+00
8.525329e+00
9.269767e+00
8.733796e+00
1.073041e+01
9.293524e+00
1.088204e+01
9.445151e+00
9.256805e+00
8.741450e+00
9.443331e+00
8.927976e+00
1.087596e+01
9.452062e+00
1.104076e+01
9.616861e+00
9.443694e+00
8.926698e+00
9.611503e+00
9.094506e+00
1.104807e+01
9.608233e+00
1.122045e+01
9.780617e+00
9.622019e+00
9.086354e+00
9.773731e+00
9.238067e+00
1.123756e+01
9.760636e+00
1.141330e+01
9.936376e+00
9.791663e+00
9.224914e+00
9.929447e+00
9.362698e+00
1.143753e+01
9.908188e+00
1.161345e+01
1.008411e+01
9.952577e+00
9.346088e+00
1.007823e+01
9.471746e+00
1.164277e+01
1.005013e+01
1.181652e+01
1.022388e+01
1.010483e+01
9.452888e+00
1.021986e+01
9.567918e+00
1.184934e+01
1.018599e+01
1.201918e+01
1.035584e+01
1.024859e+01
9.547733e+00
1.035424e+01
9.653384e+00
1.205425e+01
1.031549e+01
1.221894e+01
1.048018e+01
1.038410e+01
9.632560e+00
1.048141e+01
9.729877e+00
1.225529e+01
1.043852e+01
1.241396e+01
1.059719e+01
1.051166e+01
9.708918e+00
1.060152e+01
9.798779e+00
1.245082e+01
1.055508e+01
1.260289e+01
1.070714e+01
1.063159e+01
9.778052e+00
1.071473e+01
9.861196e+00
1.263967e+01
1.066525e+01
1.278476e+01
1.081035e+01
1.074423e+01
9.840961e+00
1.082129e+01
9.918017e+00
1.282101e+01
1.076919e+01
1.295894e+01
1.090712e+01
1.084993e+01
9.898454e+00
1.092144e+01
9.969959e+00
1.299431e+01
1.086706e+01
1.312501e+01
1.099776e+01
1.094902e+01
9.951191e+00
1.101544e+01
1.001760e+01
1.315925e+01
1.095908e+01
1.328273e+01
1.108257e+01
1.104183e+01
9.999708e+00
1.110355e+01
1.006143e+01
1.331565e+01
1.104547e+01
1.343201e+01
1.116183e+01
1.112867e+01
1.004445e+01
1.118604e+01
1.010182e+01
1.346349e+01
1.112644e+01
1.357287e+01
1.123582e+01
1.120983e+01
1.008578e+01
1.126316e+01
1.013910e+01
1.360282e+01
1.120222e+01
1.370539e+01
1.130479e+01
1.128561e+01
1.012401e+01
1.133515e+01
1.017355e+01
1.373374e+01
1.127303e+01
1.382970e+01
1.136898e+01
1.135626e+01
1.015939e+01
1.140225e+01
1.020539e+01
1.385644e+01
1.133908e+01
1.394599e+01
1.142863e+01
1.142203e+01
1.019215e+01
1.146468e+01
1.023480e+01
1.397111e+01
1.140058e+01
1.405446e+01
1.148393e+01
1.148315e+01
1.022246e+01
1.152265e+01
1.026196e+01
1.407796e+01
1.145773e+01
1.415532e+01
1.153508e+01
1.153984e+01
1.025049e+01
1.157636e+01
1.028700e+01
1.417722e+01
1.151069e+01
1.424880e+01
1.158227e+01
1.159230e+01
1.027638e+01
1.162597e+01
1.031005e+01
1.426913e+01
1.155966e+01
1.433512e+01
1.162565e+01
1.164071e+01
1.030024e+01
1.167167e+01
1.033120e+01
1.435391e+01
1.160479e+01
1.441450e+01
1.166538e+01
1.168523e+01
1.032218e+01
1.171360e+01
1.035055e+01
1.443177e+01
1.164622e+01
1.448715e+01
1.170160e+01
1.172603e+01
1.034230e+01
1.175191e+01
1.036817e+01
1.450294e+01
1.168410e+01
1.455328e+01
1.173444e+01
1.176324e+01
1.036066e+01
1.178673e+01
1.038415e+01
1.456762e+01
1.171855e+01
1.461306e+01
1.176399e+01
1.179699e+01
1.037735e+01
1.181817e+01
1.039853e+01
1.462598e+01
1.174969e+01
1.466667e+01
1.179038e+01
1.182740e+01
1.039241e+01
1.184635e+01
1.041136e+01
1.467820e+01
1.177762e+01
1.471427e+01
1.181368e+01
1.185457e+01
1.040592e+01
1.187136e+01
1.042271e+01
1.472445e+01
1.180243e+01
1.475600e+01
1.183398e+01
1.187860e+01
1.041792e+01
1.189328e+01
1.043260e+01
1.476485e+01
1.182421e+01
1.479200e+01
1.185135e+01
1.189956e+01
1.042844e+01
1.191218e+01
1.044106e+01
1.479953e+01
1.184303e+01
1.482236e+01
1.186585e+01
1.191753e+01
1.043753e+01
1.192814e+01
1.044814e+01
1.482861e+01
1.185895e+01
1.484718e+01
1.187752e+01
1.193257e+01
1.044521e+01
1.194120e+01
1.045384e+01
1.485216e+01
1.187202e+01
1.486654e+01
1.188641e+01
1.194473e+01
1.045152e+01
1.195141e+01
1.045820e+01
1.487027e+01
1.188230e+01
1.488051e+01
1.189254e+01
1.195405e+01
1.045646e+01
1.195881e+01
1.046122e+01
1.488298e+01
1.188981e+01
1.488911e+01
1.189594e+01
1.196056e+01
1.046006e+01
1.196341e+01
1.046291e+01
1.489035e+01
1.189458e+01
1.489239e+01
1.189662e+01
1.196428e+01
1.046233e+01
1.196523e+01
1.046328e+01
</DataArray>
<DataArray type="Float32" Name="V2" format="ascii">
7.836968e-01
8.325224e-01
7.841507e-01
8.329550e-01
8.325224e-01
8.900000e-01
8.329550e-01
8.904069e-01
7.841507e-01
8.329550e-01
7.855090e-01
8.342520e-01
8.329550e-01
8.904069e-01
8.342520e-01
8.916271e-01
7.855090e-01
8.342520e-01
7.877704e-01
8.364119e-01
8.342520e-01
8.916271e-01
8.364119e-01
8.936588e-01
7.877704e-01
8.364119e-01
7.909317e-01
8.394321e-01
8.364119e-01
8.936588e-01
8.394321e-01
8.964991e-01
7.909317e-01
8.394321e-01
7.949879e-01
8.433089e-01
8.394321e-01
8.964991e-01
8.433089e-01
9.001438e-01
7.949879e-01
8.433089e-01
7.999329e-01
8.480378e-01
8.433089e-01
9.001438e-01
8.480378e-01
9.045882e-01
7.999329e-01
8.480378e-01
8.057587e-01
8.536136e-01
8.480378e-01
9.045882e-01
8.536136e-01
9.098263e-01
8.057587e-01
8.536136e-01
8.124556e-01
8.600302e-01
8.536136e-01
9.098263e-01
8.600302e-01
9.158519e-01
8.124556e-01
8.600302e-01
8.200121e-01
8.672809e-01
8.600302e-01
9.158519e-01
8.672809e-01
9.226581e-01
8.200121e-01
8.672809e-01
8.284136e-01
8.753586e-01
8.672809e-01
9.226581e-01
8.753586e-01
9.302383e-01
8.284136e-01
8.753586e-01
8.376424e-01
8.842549e-01
8.753586e-01
9.302383e-01
8.842549e-01
9.385860e-01
8.376424e-01
8.842549e-01
8.476756e-01
8.939603e-01
8.842549e-01
9.385860e-01
8.939603e-01
9.476958e-01
8.476756e-01
8.939603e-01
8.584837e-01
9.044629e-01
8.939603e-01
9.476958e-01
9.044629e-01
9.575636e-01
8.584837e-01
9.044629e-01
8.700274e-01
9.157460e-01
9.044629e-01
9.575636e-01
9.157460e-01
9.681866e-01
8.700274e-01
9.157460e-01
8.822530e-01
9.277840e-01
9.157460e-01
9.681866e-01
9.277840e-01
9.795638e-01
8.822530e-01
9.277840e-01
8.950863e-01
9.405351e-01
9.277840e-01
9.795638e-01
9.405351e-01
9.916950e-01
8.950863e-01
9.405351e-01
9.084230e-01
9.539253e-01
9.405351e-01
9.916950e-01
9.539253e-01
1.004578e+00
9.084230e-01
9.539253e-01
9.221171e-01
9.678220e-01
9.539253e-01
1.004578e+00
9.678220e-01
1.018204e+00
9.221171e-01
9.678220e-01
9.359453e-01
9.819698e-01
9.678220e-01
1.018204e+00
9.819698e-01
1.032546e+00
9.359453e-01
9.819698e-01
9.496870e-01
9.961031e-01
9.819698e-01
1.032546e+00
9.961031e-01
1.047283e+00
9.496870e-01
9.961031e-01
9.629737e-01
1.009625e+00
9.961031e-01
1.047283e+00
1.009625e+00
1.060609e+00
9.629737e-01
1.009625e+00
9.756638e-01
1.022479e+00
1.009625e+00
1.060609e+00
1.022479e+00
1.073205e+00
9.756638e-01
1.022479e+00
9.876654e-01
1.034618e+00
1.022479e+00
1.073205e+00
1.034618e+00
1.085163e+00
9.876654e-01
1.034618e+00
9.989979e-01
1.046086e+00
1.034618e+00
1.085163e+00
1.046086e+00
1.096521e+00
9.989979e-01
1.046086e+00
1.009694e+00
1.056909e+00
1.046086e+00
1.096521e+00
1.056909e+00
1.107287e+00
1.009694e+00
1.056909e+00
1.019792e+00
1.067116e+00
1.056909e+00
1.107287e+00
1.067116e+00
1.117473e+00
1.019792e+00
1.067116e+00
1.029328e+00
1.076737e+00
1.067116e+00
1.117473e+00
1.076737e+00
1.127096e+00
1.029328e+00
1.076737e+00
1.038334e+00
1.085804e+00
1.076737e+00
1.127096e+00
1.085804e+00
1.136176e+00
1.038334e+00
1.085804e+00
1.046840e+00
1.094350e+00
1.085804e+00
1.136176e+00
1.094350e+00
1.144739e+00
1.046840e+00
1.094350e+00
1.054876e+00
1.102406e+00
1.094350e+00
1.144739e+00
1.102406e+00
1.152810e+00
1.054876e+00
1.102406e+00
1.062468e+00
1.110000e+00
1.102406e+00
1.152810e+00
1.110000e+00
1.160418e+00
1.062468e+00
1.110000e+00
1.069640e+00
1.117161e+00
1.110000e+00
1.160418e+00
1.117161e+00
1.167587e+00
1.069640e+00
1.117161e+00
1.076416e+00
1.123914e+00
1.117161e+00
1.167587e+00
1.123914e+00
1.174344e+00
1.076416e+00
1.123914e+00
1.082817e+00
1.130284e+00
1.123914e+00
1.174344e+00
1.130284e+00
1.180713e+00
1.082817e+00
1.130284e+00
1.088864e+00
1.136291e+00
1.130284e+00
1.180713e+00
1.136291e+00
1.186715e+00
1.088864e+00
1.136291e+00
1.094574e+00
1.141958e+00
1.136291e+00
1.186715e+00
1.141958e+00
1.192372e+00
1.094574e+00
1.141958e+00
1.099965e+00
1.147301e+00
1.141958e+00
1.192372e+00
1.147301e+00
1.197703e+00
1.099965e+00
1.147301e+00
1.105053e+00
1.152339e+00
1.147301e+00
1.197703e+00
1.152339e+00
1.202725e+00
1.105053e+00
1.152339e+00
1.109852e+00
1.157087e+00
1.152339e+00
1.202725e+00
1.157087e+00
1.207455e+00
1.109852e+00
1.157087e+00
1.114375e+00
1.161558e+00
1.157087e+00
1.207455e+00
1.161558e+00
1.211907e+00
1.114375e+00
1.161558e+00
1.118635e+00
1.165767e+00
1.161558e+00
1.211907e+00
1.165767e+00
1.216095e+00
1.118635e+00
1.165767e+00
1.122643e+00
1.169724e+00
1.165767e+00
1.216095e+00
1.169724e+00
1.220030e+00
1.122643e+00
1.169724e+00
1.126408e+00
1.173440e+00
1.169724e+00
1.220030e+00
1.173440e+00
1.223724e+00
1.126408e+00
1.173440e+00
1.129942e+00
1.176926e+00
1.173440e+00
1.223724e+00
1.176926e+00
1.227187e+00
1.129942e+00
1.176926e+00
1.133251e+00
1.180189e+00
1.176926e+00
1.227187e+00
1.180189e+00
1.230428e+00
1.133251e+00
1.180189e+00
1.136343e+00
1.183238e+00
1.180189e+00
1.230428e+00
1.183238e+00
1.233454e+00
1.136343e+00
1.183238e+00
1.139227e+00
1.186080e+00
1.183238e+00
1.233454e+00
1.186080e+00
1.236275e+00
1.139227e+00
1.186080e+00
1.141907e+00
1.188722e+00
1.186080e+00
1.236275e+00
1.188722e+00
1.238896e+00
1.141907e+00
1.188722e+00
1.144391e+00
1.191169e+00
1.188722e+00
1.238896e+00
1.191169e+00
1.241323e+00
1.144391e+00
1.191169e+00
1.146683e+00
1.193426e+00
1.191169e+00
1.241323e+00
1.193426e+00
1.243562e+00
1.146683e+00
1.193426e+00
1.148788e+00
1.195500e+00
1.193426e+00
1.243562e+00
1.195500e+00
1.245617e+00
1.148788e+00
1.195500e+00
1.150710e+00
1.197393e+00
1.195500e+00
1.245617e+00
1.197393e+00
1.247494e+00
1.150710e+00
1.197393e+00
1.152453e+00
1.199109e+00
1.197393e+00
1.247494e+00
1.199109e+00
1.249195e+00
1.152453e+00
1.199109e+00
1.154020e+00
1.200653e+00
1.199109e+00
1.249195e+00
1.200653e+00
1.250725e+00
1.154020e+00
1.200653e+00
1.155415e+00
1.202026e+00
1.200653e+00
1.250725e+00
1.202026e+00
1.252086e+00
1.155415e+00
1.202026e+00
1.156640e+00
1.203232e+00
1.202026e+00
1.252086e+00
1.203232e+00
1.253280e+00
1.156640e+00
1.203232e+00
1.157697e+00
1.204273e+00
1.203232e+00
1.253280e+00
1.204273e+00
1.254312e+00
1.157697e+00
1.204273e+00
1.158588e+00
1.205151e+00
1.204273e+00
1.254312e+00
1.205151e+00
1.255181e+00
1.158588e+00
1.205151e+00
1.159315e+00
1.205866e+00
1.205151e+00
1.255181e+00
1.205866e+00
1.255890e+00
1.159315e+00
1.205866e+00
1.159880e+00
1.206422e+00
1.205866e+00
1.255890e+00
1.206422e+00
1.256440e+00
1.159880e+00
1.206422e+00
1.160282e+00
1.206818e+00
1.206422e+00
1.256440e+00
1.206818e+00
1.256832e+00
1.160282e+00
1.206818e+00
1.160523e+00
1.207055e+00
1.206818e+00
1.256832e+00
1.207055e+00
1.257068e+00
1.160523e+00
1.207055e+00
1.160603e+00
1.207134e+00
1.207055e+00
1.257068e+00
1.207134e+00
1.257146e+00
</DataArray>
<DataArray type="Float32" Name="V3" format="ascii">
0.000000e+00
0.000000e+00
7.902372e-03
6.660131e-03
0.000000e+00
0.000000e+00
6.660131e-03
5.221690e-03
7.902372e-03
6.660131e-03
1.576316e-02
1.328132e-02
6.660131e-03
5.221690e-03
1.328132e-02
1.040759e-02
1.576316e-02
1.328132e-02
2.354049e-02
1.982473e-02
1.328132e-02
1.040759e-02
1.982473e-02
1.552216e-02
2.354049e-02
1.982473e-02
3.119247e-02
2.625158e-02
1.982473e-02
1.552216e-02
2.625158e-02
2.053027e-02
3.119247e-02
2.625158e-02
3.867693e-02
3.252327e-02
2.625158e-02
2.053027e-02
3.252327e-02
2.539744e-02
3.867693e-02
3.252327e-02
4.595129e-02
3.860138e-02
3.252327e-02
2.539744e-02
3.860138e-02
3.009009e-02
4.595129e-02
3.860138e-02
5.297236e-02
4.444776e-02
3.860138e-02
3.009009e-02
4.444776e-02
3.457588e-02
5.297236e-02
4.444776e-02
5.969615e-02
5.002453e-02
4.444776e-02
3.457588e-02
5.002453e-02
3.882401e-02
5.969615e-02
5.002453e-02
6.607749e-02
5.529408e-02
5.002453e-02
3.882401e-02
5.529408e-02
4.280562e-02
6.607749e-02
5.529408e-02
7.206975e-02
6.021909e-02
5.529408e-02
4.280562e-02
6.021909e-02
4.649414e-02
7.206975e-02
6.021909e-02
7.762444e-02
6.476249e-02
6.021909e-02
4.649414e-02
6.476249e-02
4.986571e-02
7.762444e-02
6.476249e-02
8.269090e-02
6.888731e-02
6.476249e-02
4.986571e-02
6.888731e-02
5.289943e-02
8.269090e-02
6.888731e-02
8.721613e-02
7.255652e-02
6.888731e-02
5.289943e-02
7.255652e-02
5.557748e-02
8.721613e-02
7.255652e-02
9.114513e-02
7.573260e-02
7.255652e-02
5.557748e-02
7.573260e-02
5.788478e-02
9.114513e-02
7.573260e-02
9.442212e-02
7.837685e-02
7.573260e-02
5.788478e-02
7.837685e-02
5.980778e-02
9.442212e-02
7.837685e-02
9.699348e-02
8.044824e-02
7.837685e-02
5.980778e-02
8.044824e-02
6.133172e-02
9.699348e-02
8.044824e-02
9.881365e-02
8.190185e-02
8.044824e-02
6.133172e-02
8.190185e-02
6.243530e-02
9.881365e-02
8.190185e-02
9.985482e-02
8.268768e-02
8.190185e-02
6.243530e-02
8.268768e-02
6.308125e-02
9.985482e-02
8.268768e-02
1.001211e-01
8.277290e-02
8.268768e-02
6.308125e-02
8.277290e-02
6.320141e-02
1.001211e-01
8.277290e-02
9.970261e-02
8.225166e-02
8.277290e-02
6.320141e-02
8.225166e-02
6.254552e-02
9.970261e-02
8.225166e-02
9.880448e-02
8.144245e-02
8.225166e-02
6.254552e-02
8.144245e-02
6.208769e-02
9.880448e-02
8.144245e-02
9.751557e-02
8.044474e-02
8.144245e-02
6.208769e-02
8.044474e-02
6.189301e-02
9.751557e-02
8.044474e-02
9.601535e-02
7.945607e-02
8.044474e-02
6.189301e-02
7.945607e-02
6.180276e-02
9.601535e-02
7.945607e-02
9.437531e-02
7.848717e-02
7.945607e-02
6.180276e-02
7.848717e-02
6.175809e-02
9.437531e-02
7.848717e-02
9.264290e-02
7.751936e-02
7.848717e-02
6.175809e-02
7.751936e-02
6.171825e-02
9.264290e-02
7.751936e-02
9.084436e-02
7.653156e-02
7.751936e-02
6.171825e-02
7.653156e-02
6.165006e-02
9.084436e-02
7.653156e-02
8.899496e-02
7.550702e-02
7.653156e-02
6.165006e-02
7.550702e-02
6.152652e-02
8.899496e-02
7.550702e-02
8.710338e-02
7.443329e-02
7.550702e-02
6.152652e-02
7.443329e-02
6.132660e-02
8.710338e-02
7.443329e-02
8.517429e-02
7.330130e-02
7.443329e-02
6.132660e-02
7.330130e-02
6.103463e-02
8.517429e-02
7.330130e-02
8.320990e-02
7.210454e-02
7.330130e-02
6.103463e-02
7.210454e-02
6.063963e-02
8.320990e-02
7.210454e-02
8.121094e-02
7.083844e-02
7.210454e-02
6.063963e-02
7.083844e-02
6.013444e-02
8.121094e-02
7.083844e-02
7.917723e-02
6.950003e-02
7.083844e-02
6.013444e-02
6.950003e-02
5.951497e-02
7.917723e-02
6.950003e-02
7.710817e-02
6.808754e-02
6.950003e-02
5.951497e-02
6.808754e-02
5.877951e-02
7.710817e-02
6.808754e-02
7.500294e-02
6.660024e-02
6.808754e-02
5.877951e-02
6.660024e-02
5.792822e-02
7.500294e-02
6.660024e-02
7.286074e-02
6.503821e-02
6.660024e-02
5.792822e-02
6.503821e-02
5.696264e-02
7.286074e-02
6.503821e-02
7.068088e-02
6.340217e-02
6.503821e-02
5.696264e-02
6.340217e-02
5.588534e-02
7.068088e-02
6.340217e-02
6.846284e-02
6.169340e-02
6.340217e-02
5.588534e-02
6.169340e-02
5.469966e-02
6.846284e-02
6.169340e-02
6.620634e-02
5.991356e-02
6.169340e-02
5.469966e-02
5.991356e-02
5.340947e-02
6.620634e-02
5.991356e-02
6.391130e-02
5.806467e-02
5.991356e-02
5.340947e-02
5.806467e-02
5.201898e-02
6.391130e-02
5.806467e-02
6.157789e-02
5.614898e-02
5.806467e-02
5.201898e-02
5.614898e-02
5.053268e-02
6.157789e-02
5.614898e-02
5.920650e-02
5.416895e-02
5.614898e-02
5.053268e-02
5.416895e-02
4.895516e-02
5.920650e-02
5.416895e-02
5.679772e-02
5.212717e-02
5.416895e-02
4.895516e-02
5.212717e-02
4.729109e-02
5.679772e-02
5.212717e-02
5.435233e-02
5.002636e-02
5.212717e-02
4.729109e-02
5.002636e-02
4.554514e-02
5.435233e-02
5.002636e-02
5.187130e-02
4.786930e-02
5.002636e-02
4.554514e-02
4.786930e-02
4.372196e-02
5.187130e-02
4.786930e-02
4.935574e-02
4.565882e-02
4.786930e-02
4.372196e-02
4.565882e-02
4.182613e-02
4.935574e-02
4.565882e-02
4.680690e-02
4.339780e-02
4.565882e-02
4.182613e-02
4.339780e-02
3.986216e-02
4.680690e-02
4.339780e-02
4.422615e-02
4.108911e-02
4.339780e-02
3.986216e-02
4.108911e-02
3.783449e-02
4.422615e-02
4.108911e-02
4.161497e-02
3.873566e-02
4.108911e-02
3.783449e-02
3.873566e-02
3.574743e-02
4.161497e-02
3.873566e-02
3.897493e-02
3.634034e-02
3.873566e-02
3.574743e-02
3.634034e-02
3.360524e-02
3.897493e-02
3.634034e-02
3.630769e-02
3.390603e-02
3.634034e-02
3.360524e-02
3.390603e-02
3.141204e-02
3.630769e-02
3.390603e-02
3.361495e-02
3.143561e-02
3.390603e-02
3.141204e-02
3.143561e-02
2.917190e-02
3.361495e-02
3.143561e-02
3.089850e-02
2.893195e-02
3.143561e-02
2.917190e-02
2.893195e-02
2.688876e-02
3.089850e-02
2.893195e-02
2.816017e-02
2.639788e-02
2.893195e-02
2.688876e-02
2.639788e-02
2.456651e-02
2.816017e-02
2.639788e-02
2.540184e-02
2.383624e-02
2.639788e-02
2.456651e-02
2.383624e-02
2.220896e-02
2.540184e-02
2.383624e-02
2.262541e-02
2.124984e-02
2.383624e-02
2.220896e-02
2.124984e-02
1.981982e-02
2.262541e-02
2.124984e-02
1.983283e-02
1.864147e-02
2.124984e-02
1.981982e-02
1.864147e-02
1.740277e-02
1.983283e-02
1.864147e-02
1.702606e-02
1.601392e-02
1.864147e-02
1.740277e-02
1.601392e-02
1.496143e-02
1.702606e-02
1.601392e-02
1.420709e-02
1.336995e-02
1.601392e-02
1.496143e-02
1.336995e-02
1.249934e-02
1.420709e-02
1.336995e-02
1.137793e-02
1.071233e-02
1.336995e-02
1.249934e-02
1.071233e-02
1.002004e-02
1.137793e-02
1.071233e-02
8.540610e-03
8.043785e-03
1.071233e-02
1.002004e-02
8.043785e-03
7.527011e-03
8.540610e-03
8.043785e-03
5.697152e-03
5.367064e-03
8.043785e-03
7.527011e-03
5.367064e-03
5.023704e-03
5.697152e-03
5.367064e-03
2.849600e-03
2.684894e-03
5.367064e-03
5.023704e-03
2.684894e-03
2.513560e-03
2.849600e-03
2.684894e-03
0.000000e+00
0.000000e+00
2.684894e-03
2.513560e-03
0.000000e+00
0.000000e+00
</DataArray>
<DataArray type="Float32" Name="V4" format="ascii">
8.500000e-01
9.250000e-01
8.500000e-01
9.250000e-01
9.250000e-01
1.000000e+00