<?xml version="1.0"?>
<VTKFile type="UnstructuredGrid" version="0.1" byte_order="LittleEndian" compressor="vtkZLibDataCompressor">
<UnstructuredGrid>
<Piece NumberOfPoints="504" NumberOfCells="126">
<Points>
<DataArray type="Float32" NumberOfComponents="3" format="ascii">
0.000000e+00 4.553300e-01 0.000000e+00
0.000000e+00 4.838983e-01 0.000000e+00
3.587121e-02 4.553381e-01 0.000000e+00
3.586411e-02 4.839009e-01 0.000000e+00
0.000000e+00 4.838983e-01 0.000000e+00
0.000000e+00 5.175000e-01 0.000000e+00
3.586411e-02 4.839009e-01 0.000000e+00
3.586024e-02 5.175000e-01 0.000000e+00
3.587121e-02 4.553381e-01 0.000000e+00
3.586411e-02 4.839009e-01 0.000000e+00
7.174144e-02 4.553535e-01 0.000000e+00
7.172717e-02 4.839093e-01 0.000000e+00
3.586411e-02 4.839009e-01 0.000000e+00
3.586024e-02 5.175000e-01 0.000000e+00
7.172717e-02 4.839093e-01 0.000000e+00
7.171935e-02 5.175000e-01 0.000000e+00
7.174144e-02 4.553535e-01 0.000000e+00
7.172717e-02 4.839093e-01 0.000000e+00
1.076093e-01 4.553792e-01 0.000000e+00
1.075880e-01 4.839232e-01 0.000000e+00
7.172717e-02 4.839093e-01 0.000000e+00
7.171935e-02 5.175000e-01 0.000000e+00
1.075880e-01 4.839232e-01 0.000000e+00
1.075762e-01 5.175000e-01 0.000000e+00
1.076093e-01 4.553792e-01 0.000000e+00
1.075880e-01 4.839232e-01 0.000000e+00
1.434738e-01 4.554150e-01 0.000000e+00
1.434453e-01 4.839426e-01 0.000000e+00
1.075880e-01 4.839232e-01 0.000000e+00
1.075762e-01 5.175000e-01 0.000000e+00
1.434453e-01 4.839426e-01 0.000000e+00
1.434298e-01 5.175000e-01 0.000000e+00
1.434738e-01 4.554150e-01 0.000000e+00
1.434453e-01 4.839426e-01 0.000000e+00
1.793335e-01 4.554611e-01 0.000000e+00
1.792981e-01 4.839676e-01 0.000000e+00
1.434453e-01 4.839426e-01 0.000000e+00
1.434298e-01 5.175000e-01 0.000000e+00
1.792981e-01 4.839676e-01 0.000000e+00
1.792788e-01 5.175000e-01 0.000000e+00
1.793335e-01 4.554611e-01 0.000000e+00
1.792981e-01 4.839676e-01 0.000000e+00
2.151875e-01 4.555174e-01 0.000000e+00
2.151452e-01 4.839981e-01 0.000000e+00
1.792981e-01 4.839676e-01 0.000000e+00
1.792788e-01 5.175000e-01 0.000000e+00
2.151452e-01 4.839981e-01 0.000000e+00
2.151222e-01 5.175000e-01 0.000000e+00
2.151875e-01 4.555174e-01 0.000000e+00
2.151452e-01 4.839981e-01 0.000000e+00
2.510345e-01 4.555838e-01 0.000000e+00
2.509854e-01 4.840341e-01 0.000000e+00
2.151452e-01 4.839981e-01 0.000000e+00
2.151222e-01 5.175000e-01 0.000000e+00
2.509854e-01 4.840341e-01 0.000000e+00
2.509588e-01 5.175000e-01 0.000000e+00
2.510345e-01 4.555838e-01 0.000000e+00
2.509854e-01 4.840341e-01 0.000000e+00
2.868732e-01 4.556603e-01 0.000000e+00
2.868175e-01 4.840755e-01 0.000000e+00
2.509854e-01 4.840341e-01 0.000000e+00
2.509588e-01 5.175000e-01 0.000000e+00
2.868175e-01 4.840755e-01 0.000000e+00
2.867874e-01 5.175000e-01 0.000000e+00
2.868732e-01 4.556603e-01 0.000000e+00
2.868175e-01 4.840755e-01 0.000000e+00
3.227024e-01 4.557468e-01 0.000000e+00
3.226403e-01 4.841224e-01 0.000000e+00
2.868175e-01 4.840755e-01 0.000000e+00
2.867874e-01 5.175000e-01 0.000000e+00
3.226403e-01 4.841224e-01 0.000000e+00
3.226068e-01 5.175000e-01 0.000000e+00
3.227024e-01 4.557468e-01 0.000000e+00
3.226403e-01 4.841224e-01 0.000000e+00
3.585209e-01 4.558433e-01 0.000000e+00
3.584526e-01 4.841747e-01 0.000000e+00
3.226403e-01 4.841224e-01 0.000000e+00
3.226068e-01 5.175000e-01 0.000000e+00
3.584526e-01 4.841747e-01 0.000000e+00
3.584160e-01 5.175000e-01 0.000000e+00
3.585209e-01 4.558433e-01 0.000000e+00
3.584526e-01 4.841747e-01 0.000000e+00
3.943274e-01 4.559496e-01 0.000000e+00
3.942531e-01 4.842323e-01 0.000000e+00
3.584526e-01 4.841747e-01 0.000000e+00
3.584160e-01 5.175000e-01 0.000000e+00
3.942531e-01 4.842323e-01 0.000000e+00
3.942135e-01 5.175000e-01 0.000000e+00
3.943274e-01 4.559496e-01 0.000000e+00
3.942531e-01 4.842323e-01 0.000000e+00
4.301204e-01 4.560658e-01 0.000000e+00
4.300405e-01 4.842953e-01 0.000000e+00
3.942531e-01 4.842323e-01 0.000000e+00
3.942135e-01 5.175000e-01 0.000000e+00
4.300405e-01 4.842953e-01 0.000000e+00
4.299982e-01 5.175000e-01 0.000000e+00
4.301204e-01 4.560658e-01 0.000000e+00
4.300405e-01 4.842953e-01 0.000000e+00
4.658988e-01 4.561916e-01 0.000000e+00
4.658135e-01 4.843636e-01 0.000000e+00
4.300405e-01 4.842953e-01 0.000000e+00
4.299982e-01 5.175000e-01 0.000000e+00
4.658135e-01 4.843636e-01 0.000000e+00
4.657688e-01 5.175000e-01 0.000000e+00
4.658988e-01 4.561916e-01 0.000000e+00
4.658135e-01 4.843636e-01 0.000000e+00
5.016609e-01 4.563271e-01 0.000000e+00
5.015707e-01 4.844371e-01 0.000000e+00
4.658135e-01 4.843636e-01 0.000000e+00
4.657688e-01 5.175000e-01 0.000000e+00
5.015707e-01 4.844371e-01 0.000000e+00
5.015241e-01 5.175000e-01 0.000000e+00
5.016609e-01 4.563271e-01 0.000000e+00
5.015707e-01 4.844371e-01 0.000000e+00
5.374055e-01 4.564721e-01 0.000000e+00
5.373109e-01 4.845158e-01 0.000000e+00
5.015707e-01 4.844371e-01 0.000000e+00
5.015241e-01 5.175000e-01 0.000000e+00
5.373109e-01 4.845158e-01 0.000000e+00
5.372627e-01 5.175000e-01 0.000000e+00
5.374055e-01 4.564721e-01 0.000000e+00
5.373109e-01 4.845158e-01 0.000000e+00
5.731308e-01 4.566266e-01 0.000000e+00
5.730324e-01 4.845997e-01 0.000000e+00
5.373109e-01 4.845158e-01 0.000000e+00
5.372627e-01 5.175000e-01 0.000000e+00
5.730324e-01 4.845997e-01 0.000000e+00
5.729833e-01 5.175000e-01 0.000000e+00
5.731308e-01 4.566266e-01 0.000000e+00
5.730324e-01 4.845997e-01 0.000000e+00
6.088354e-01 4.567903e-01 0.000000e+00
6.087340e-01 4.846888e-01 0.000000e+00
5.730324e-01 4.845997e-01 0.000000e+00
5.729833e-01 5.175000e-01 0.000000e+00
6.087340e-01 4.846888e-01 0.000000e+00
6.086846e-01 5.175000e-01 0.000000e+00
6.088354e-01 4.567903e-01 0.000000e+00
6.087340e-01 4.846888e-01 0.000000e+00
6.445176e-01 4.569633e-01 0.000000e+00
6.444141e-01 4.847829e-01 0.000000e+00
6.087340e-01 4.846888e-01 0.000000e+00
6.086846e-01 5.175000e-01 0.000000e+00
6.444141e-01 4.847829e-01 0.000000e+00
6.443652e-01 5.175000e-01 0.000000e+00
6.445176e-01 4.569633e-01 0.000000e+00
6.444141e-01 4.847829e-01 0.000000e+00
6.801756e-01 4.571454e-01 0.000000e+00
6.800711e-01 4.848821e-01 0.000000e+00
6.444141e-01 4.847829e-01 0.000000e+00
6.443652e-01 5.175000e-01 0.000000e+00
6.800711e-01 4.848821e-01 0.000000e+00
6.800239e-01 5.175000e-01 0.000000e+00
6.801756e-01 4.571454e-01 0.000000e+00
6.800711e-01 4.848821e-01 0.000000e+00
7.158076e-01 4.573364e-01 0.000000e+00
7.157034e-01 4.849863e-01 0.000000e+00
6.800711e-01 4.848821e-01 0.000000e+00
6.800239e-01 5.175000e-01 0.000000e+00
7.157034e-01 4.849863e-01 0.000000e+00
7.156592e-01 5.175000e-01 0.000000e+00
7.158076e-01 4.573364e-01 0.000000e+00
7.157034e-01 4.849863e-01 0.000000e+00
7.514116e-01 4.575363e-01 0.000000e+00
7.513095e-01 4.850956e-01 0.000000e+00
7.157034e-01 4.849863e-01 0.000000e+00
7.156592e-01 5.175000e-01 0.000000e+00
7.513095e-01 4.850956e-01 0.000000e+00
7.512700e-01 5.175000e-01 0.000000e+00
7.514116e-01 4.575363e-01 0.000000e+00
7.513095e-01 4.850956e-01 0.000000e+00
7.869854e-01 4.577450e-01 0.000000e+00
7.868877e-01 4.852099e-01 0.000000e+00
7.513095e-01 4.850956e-01 0.000000e+00
7.512700e-01 5.175000e-01 0.000000e+00
7.868877e-01 4.852099e-01 0.000000e+00
7.868550e-01 5.175000e-01 0.000000e+00
7.869854e-01 4.577450e-01 0.000000e+00
7.868877e-01 4.852099e-01 0.000000e+00
8.225268e-01 4.579624e-01 0.000000e+00
8.224363e-01 4.853292e-01 0.000000e+00
7.868877e-01 4.852099e-01 0.000000e+00
7.868550e-01 5.175000e-01 0.000000e+00
8.224363e-01 4.853292e-01 0.000000e+00
8.224131e-01 5.175000e-01 0.000000e+00
8.225268e-01 4.579624e-01 0.000000e+00
8.224363e-01 4.853292e-01 0.000000e+00
8.580334e-01 4.581884e-01 0.000000e+00
8.579535e-01 4.854537e-01 0.000000e+00
8.224363e-01 4.853292e-01 0.000000e+00
8.224131e-01 5.175000e-01 0.000000e+00
8.579535e-01 4.854537e-01 0.000000e+00
8.579433e-01 5.175000e-01 0.000000e+00
8.580334e-01 4.581884e-01 0.000000e+00
8.579535e-01 4.854537e-01 0.000000e+00
8.935023e-01 4.584228e-01 0.000000e+00
8.934375e-01 4.855835e-01 0.000000e+00
8.579535e-01 4.854537e-01 0.000000e+00
8.579433e-01 5.175000e-01 0.000000e+00
8.934375e-01 4.855835e-01 0.000000e+00
8.934447e-01 5.175000e-01 0.000000e+00
8.935023e-01 4.584228e-01 0.000000e+00
8.934375e-01 4.855835e-01 0.000000e+00
9.289306e-01 4.586657e-01 0.000000e+00
9.288867e-01 4.857186e-01 0.000000e+00
8.934375e-01 4.855835e-01 0.000000e+00
8.934447e-01 5.175000e-01 0.000000e+00
9.288867e-01 4.857186e-01 0.000000e+00
9.289169e-01 5.175000e-01 0.000000e+00
9.289306e-01 4.586657e-01 0.000000e+00
9.288867e-01 4.857186e-01 0.000000e+00
9.643149e-01 4.589170e-01 0.000000e+00
9.642993e-01 4.858593e-01 0.000000e+00
9.288867e-01 4.857186e-01 0.000000e+00
9.289169e-01 5.175000e-01 0.000000e+00
9.642993e-01 4.858593e-01 0.000000e+00
9.643597e-01 5.175000e-01 0.000000e+00
9.643149e-01 4.589170e-01 0.000000e+00
9.642993e-01 4.858593e-01 0.000000e+00
9.996512e-01 4.591768e-01 0.000000e+00
9.996735e-01 4.860059e-01 0.000000e+00
9.642993e-01 4.858593e-01 0.000000e+00
9.643597e-01 5.175000e-01 0.000000e+00
9.996735e-01 4.860059e-01 0.000000e+00
9.997734e-01 5.175000e-01 0.000000e+00
9.996512e-01 4.591768e-01 0.000000e+00
9.996735e-01 4.860059e-01 0.000000e+00
1.034935e+00 4.594451e-01 0.000000e+00
1.035008e+00 4.861589e-01 0.000000e+00
9.996735e-01 4.860059e-01 0.000000e+00
9.997734e-01 5.175000e-01 0.000000e+00
1.035008e+00 4.861589e-01 0.000000e+00
1.035159e+00 5.175000e-01 0.000000e+00
1.034935e+00 4.594451e-01 0.000000e+00
1.035008e+00 4.861589e-01 0.000000e+00
1.070162e+00 4.597219e-01 0.000000e+00
1.070300e+00 4.863187e-01 0.000000e+00
1.035008e+00 4.861589e-01 0.000000e+00
1.035159e+00 5.175000e-01 0.000000e+00
1.070300e+00 4.863187e-01 0.000000e+00
1.070518e+00 5.175000e-01 0.000000e+00
1.070162e+00 4.597219e-01 0.000000e+00
1.070300e+00 4.863187e-01 0.000000e+00
1.105324e+00 4.600076e-01 0.000000e+00
1.105549e+00 4.864862e-01 0.000000e+00
1.070300e+00 4.863187e-01 0.000000e+00
1.070518e+00 5.175000e-01 0.000000e+00
1.105549e+00 4.864862e-01 0.000000e+00
1.105854e+00 5.175000e-01 0.000000e+00
1.105324e+00 4.600076e-01 0.000000e+00
[...]
<PointData>
<DataArray type="Float32" Name="V1" format="ascii">
1.173772e+02
4.339680e+01
1.174216e+02
4.344123e+01
4.531200e+01
9.246804e+00
4.533099e+01
9.265795e+00
1.174401e+02
4.341454e+01
1.175507e+02
4.352509e+01
4.534703e+01
9.258273e+00
4.539848e+01
9.309724e+00
1.175951e+02
4.347679e+01
1.177777e+02
4.365948e+01
4.542919e+01
9.293119e+00
4.551724e+01
9.381171e+00
1.178457e+02
4.358824e+01
1.181013e+02
4.384380e+01
4.556208e+01
9.354910e+00
4.568660e+01
9.479428e+00
1.181927e+02
4.374916e+01
1.185220e+02
4.407844e+01
4.574591e+01
9.443667e+00
4.590707e+01
9.604833e+00
1.186370e+02
4.396005e+01
1.190409e+02
4.436396e+01
4.598109e+01
9.559582e+00
4.617927e+01
9.757763e+00
1.191797e+02
4.422148e+01
1.196594e+02
4.470110e+01
4.626825e+01
9.702964e+00
4.650395e+01
9.938665e+00
1.198222e+02
4.453418e+01
1.203788e+02
4.509075e+01
4.660812e+01
9.874214e+00
4.688198e+01
1.014807e+01
1.205660e+02
4.489898e+01
1.212010e+02
4.553396e+01
4.700164e+01
1.007382e+01
4.731441e+01
1.038659e+01
1.214131e+02
4.531689e+01
1.221281e+02
4.603193e+01
4.744985e+01
1.030236e+01
4.780242e+01
1.065492e+01
1.223655e+02
4.578905e+01
1.231624e+02
4.658603e+01
4.795400e+01
1.056051e+01
4.834737e+01
1.095389e+01
1.234256e+02
4.631677e+01
1.243066e+02
4.719777e+01
4.851547e+01
1.084906e+01
4.895080e+01
1.128439e+01
1.245961e+02
4.690154e+01
1.255635e+02
4.786889e+01
4.913583e+01
1.116887e+01
4.961442e+01
1.164747e+01
1.258800e+02
4.754503e+01
1.269362e+02
4.860128e+01
4.981685e+01
1.152099e+01
5.034016e+01
1.204430e+01
1.272804e+02
4.824907e+01
1.284284e+02
4.939705e+01
5.056050e+01
1.190651e+01
5.113016e+01
1.247618e+01
1.288009e+02
4.901575e+01
1.300437e+02
5.025853e+01
5.136895e+01
1.232674e+01
5.198680e+01
1.294459e+01
1.304453e+02
4.984735e+01
1.317862e+02
5.118826e+01
5.224463e+01
1.278312e+01
5.291271e+01
1.345121e+01
1.322176e+02
5.074640e+01
1.336602e+02
5.218905e+01
5.319020e+01
1.327729e+01
5.391080e+01
1.399788e+01
1.341222e+02
5.171571e+01
1.356705e+02
5.326398e+01
5.420861e+01
1.381107e+01
5.498431e+01
1.458677e+01
1.361636e+02
5.275838e+01
1.378217e+02
5.441640e+01
5.530313e+01
1.438659e+01
5.613680e+01
1.522026e+01
1.383467e+02
5.387782e+01
1.401189e+02
5.565002e+01
5.647735e+01
1.500623e+01
5.737227e+01
1.590115e+01
1.406762e+02
5.507784e+01
1.425672e+02
5.696885e+01
5.773527e+01
1.567274e+01
5.869512e+01
1.663259e+01
1.431571e+02
5.636263e+01
1.451718e+02
5.837732e+01
5.908129e+01
1.638927e+01
6.011032e+01
1.741829e+01
1.457943e+02
5.773689e+01
1.479377e+02
5.988028e+01
6.052034e+01
1.715951e+01
6.162340e+01
1.826257e+01
1.485924e+02
5.920586e+01
1.508696e+02
6.148305e+01
6.205789e+01
1.798781e+01
6.324061e+01
1.917053e+01
1.515554e+02
6.077542e+01
1.539714e+02
6.319147e+01
6.370009e+01
1.887925e+01
6.496908e+01
2.014824e+01
1.546864e+02
6.245220e+01
1.572461e+02
6.501199e+01
6.545388e+01
1.984000e+01
6.681693e+01
2.120305e+01
1.579872e+02
6.424378e+01
1.606951e+02
6.695174e+01
6.732711e+01
2.087744e+01
6.879353e+01
2.234386e+01
1.614575e+02
6.615884e+01
1.643173e+02
6.901863e+01
6.932876e+01
2.200062e+01
7.090982e+01
2.358168e+01
1.650941e+02
6.820741e+01
1.681082e+02
7.122145e+01
7.146920e+01
2.322074e+01
7.317865e+01
2.493019e+01
1.688896e+02
7.040125e+01
1.720583e+02
7.357004e+01
7.376043e+01
2.455175e+01
7.561530e+01
2.640662e+01
1.728304e+02
7.275421e+01
1.761516e+02
7.607540e+01
7.621654e+01
2.601132e+01
7.823815e+01
2.803294e+01
1.768951e+02
7.528279e+01
1.803622e+02
7.874985e+01
7.885412e+01
2.762202e+01
8.106952e+01
2.983742e+01
1.810513e+02
7.800675e+01
1.846517e+02
8.160715e+01
8.169283e+01
2.941316e+01
8.413672e+01
3.185705e+01
1.852514e+02
8.094981e+01
1.889640e+02
8.466243e+01
8.475587e+01
3.142332e+01
8.747334e+01
3.414080e+01
1.894284e+02
8.414038e+01
1.932201e+02
8.793211e+01
8.807017e+01
3.370436e+01
9.112064e+01
3.675483e+01
1.934895e+02
8.761225e+01
1.973109e+02
9.143359e+01
9.166544e+01
3.632783e+01
9.512841e+01
3.979080e+01
1.973085e+02
9.140571e+01
2.010891e+02
9.518629e+01
9.556984e+01
3.939654e+01
9.955439e+01
4.338109e+01
2.007143e+02
9.557202e+01
2.043617e+02
9.921948e+01
9.979606e+01
4.306772e+01
1.044597e+02
4.773132e+01
2.034695e+02
1.001930e+02
2.068873e+02
1.036108e+02
1.043003e+02
4.760885e+01
1.098994e+02
5.320793e+01
2.052111e+02
1.054639e+02
2.084066e+02
1.086595e+02
1.088933e+02
5.354654e+01
1.159404e+02
6.059361e+01
2.052050e+02
1.120647e+02
2.087254e+02
1.155851e+02
1.127989e+02
6.263308e+01
1.225047e+02
7.233892e+01
2.040420e+02
1.209531e+02
2.080559e+02
1.249669e+02
1.182723e+02
7.746948e+01
1.271735e+02
8.637068e+01
2.050458e+02
1.278916e+02
2.090572e+02
1.319030e+02
1.255549e+02
8.631405e+01
1.315663e+02
9.232545e+01
2.080727e+02
1.327974e+02
2.129235e+02
1.376481e+02
1.313444e+02
9.241085e+01
1.369229e+02
9.798932e+01
2.128768e+02
1.376158e+02
2.183363e+02
1.430753e+02
1.371314e+02
9.781917e+01
1.423476e+02
1.030353e+02
2.188557e+02
1.424798e+02
2.247228e+02
1.483469e+02
1.428550e+02
1.026775e+02
1.477391e+02
1.075617e+02
2.255943e+02
1.473782e+02
2.316863e+02
1.534702e+02
1.484508e+02
1.070711e+02
1.530209e+02
1.116412e+02
2.327829e+02
1.522542e+02
2.389439e+02
1.584152e+02
1.538717e+02
1.110600e+02
1.581395e+02
1.153278e+02
2.401791e+02
1.570439e+02
2.462790e+02
1.631438e+02
1.590765e+02
1.146911e+02
1.630489e+02
1.186635e+02
2.475891e+02
1.616880e+02
2.535205e+02
1.676193e+02
1.640287e+02
1.180003e+02
1.677093e+02
1.216809e+02
2.548562e+02
1.661350e+02
2.605312e+02
1.718101e+02
1.686972e+02
1.210147e+02
1.720873e+02
1.244048e+02
2.618531e+02
1.703421e+02
2.672007e+02
1.756897e+02
1.730557e+02
1.237542e+02
1.761553e+02
1.268538e+02
2.684769e+02
1.742740e+02
2.734397e+02
1.792369e+02
1.770822e+02
1.262331e+02
1.798907e+02
1.290416e+02
2.746443e+02
1.779023e+02
2.791765e+02
1.824345e+02
1.807590e+02
1.284621e+02
1.832753e+02
1.309784e+02
2.802887e+02
1.812041e+02
2.843539e+02
1.852692e+02
1.840717e+02
1.304485e+02
1.862947e+02
1.326715e+02
2.853569e+02
1.841611e+02
2.889265e+02
1.877306e+02
1.870089e+02
1.321977e+02
1.889375e+02
1.341264e+02
2.898071e+02
1.867590e+02
2.928588e+02
1.898107e+02
1.895616e+02
1.337135e+02
1.911949e+02
1.353469e+02
2.936066e+02
1.889867e+02
2.961235e+02
1.915036e+02
1.917227e+02
1.349984e+02
1.930601e+02
1.363358e+02
2.967304e+02
1.908355e+02
2.986998e+02
1.928049e+02
1.934870e+02
1.360544e+02
1.945278e+02
1.370951e+02
2.991599e+02
1.922989e+02
3.005727e+02
1.937117e+02
1.948506e+02
1.368826e+02
1.955943e+02
1.376264e+02
3.008816e+02
1.933721e+02
3.017316e+02
1.942222e+02
1.958108e+02
1.374840e+02
1.962571e+02
1.379304e+02
3.018867e+02
1.940517e+02
3.021705e+02
1.943354e+02
1.963657e+02
1.378590e+02
1.965145e+02
1.380078e+02
</DataArray>
<DataArray type="Float32" Name="V2" format="ascii">
4.553300e-01
4.838983e-01
4.560909e-01
4.846446e-01
4.838983e-01
5.175000e-01
4.846446e-01
5.182332e-01
4.560909e-01
4.846446e-01
4.583635e-01
4.868830e-01
4.846446e-01
5.182332e-01
4.868830e-01
5.204316e-01
4.583635e-01
4.868830e-01
4.621475e-01
4.906101e-01
4.868830e-01
5.204316e-01
4.906101e-01
5.240921e-01
4.621475e-01
4.906101e-01
4.674373e-01
4.958204e-01
4.906101e-01
5.240921e-01
4.958204e-01
5.292094e-01
4.674373e-01
4.958204e-01
4.742254e-01
5.025062e-01
4.958204e-01
5.292094e-01
5.025062e-01
5.357760e-01
4.742254e-01
5.025062e-01
4.825017e-01
5.106580e-01
5.025062e-01
5.357760e-01
5.106580e-01
5.437822e-01
4.825017e-01
5.106580e-01
4.922541e-01
5.202637e-01
5.106580e-01
5.437822e-01
5.202637e-01
5.532165e-01
4.922541e-01
5.202637e-01
5.034685e-01
5.313093e-01
5.202637e-01
5.532165e-01
5.313093e-01
5.640651e-01
5.034685e-01
5.313093e-01
5.161283e-01
5.437787e-01
5.313093e-01
5.640651e-01
5.437787e-01
5.763120e-01
5.161283e-01
5.437787e-01
5.302150e-01
5.576535e-01
5.437787e-01
5.763120e-01
5.576535e-01
5.899393e-01
5.302150e-01
5.576535e-01
5.457079e-01
5.729135e-01
5.576535e-01
5.899393e-01
5.729135e-01
6.049270e-01
5.457079e-01
5.729135e-01
5.625843e-01
5.895361e-01
5.729135e-01
6.049270e-01
5.895361e-01
6.212531e-01
5.625843e-01
5.895361e-01
5.808190e-01
6.074968e-01
5.895361e-01
6.212531e-01
6.074968e-01
6.388936e-01
5.808190e-01
6.074968e-01
6.003854e-01
6.267693e-01
6.074968e-01
6.388936e-01
6.267693e-01
6.578223e-01
6.003854e-01
6.267693e-01
6.212542e-01
6.473248e-01
6.267693e-01
6.578223e-01
6.473248e-01
6.780113e-01
6.212542e-01
6.473248e-01
6.433945e-01
6.691329e-01
6.473248e-01
6.780113e-01
6.691329e-01
6.994306e-01
6.433945e-01
6.691329e-01
6.667732e-01
6.921611e-01
6.691329e-01
6.994306e-01
6.921611e-01
7.220484e-01
6.667732e-01
6.921611e-01
6.913554e-01
7.163751e-01
6.921611e-01
7.220484e-01
7.163751e-01
7.458310e-01
6.913554e-01
7.163751e-01
7.171041e-01
7.417386e-01
7.163751e-01
7.458310e-01
7.417386e-01
7.707428e-01
7.171041e-01
7.417386e-01
7.439805e-01
7.682134e-01
7.417386e-01
7.707428e-01
7.682134e-01
7.967465e-01
7.439805e-01
7.682134e-01
7.719439e-01
7.957598e-01
7.682134e-01
7.967465e-01
7.957598e-01
8.238032e-01
7.719439e-01
7.957598e-01
8.009516e-01
8.243361e-01
7.957598e-01
8.238032e-01
8.243361e-01
8.518719e-01
8.009516e-01
8.243361e-01
8.309592e-01
8.538989e-01
8.243361e-01
8.518719e-01
8.538989e-01
8.809106e-01
8.309592e-01
8.538989e-01
8.619204e-01
8.844031e-01
8.538989e-01
8.809106e-01
8.844031e-01
9.108752e-01
8.619204e-01
8.844031e-01
8.937872e-01
9.158022e-01
8.844031e-01
9.108752e-01
9.158022e-01
9.417206e-01
8.937872e-01
9.158022e-01
9.265097e-01
9.480480e-01
9.158022e-01
9.417206e-01
9.480480e-01
9.734002e-01
9.265097e-01
9.480480e-01
9.600363e-01
9.810909e-01
9.480480e-01
9.734002e-01
9.810909e-01
1.005866e+00
9.600363e-01
9.810909e-01
9.943133e-01
1.014880e+00
9.810909e-01
1.005866e+00
1.014880e+00
1.039070e+00
9.943133e-01
1.014880e+00
1.029285e+00
1.049363e+00
1.014880e+00
1.039070e+00
1.049363e+00
1.072962e+00
1.029285e+00
1.049363e+00
1.064895e+00
1.084486e+00
1.049363e+00
1.072962e+00
1.084486e+00
1.107492e+00
1.064895e+00
1.084486e+00
1.101082e+00
1.120194e+00
1.084486e+00
1.107492e+00
1.120194e+00
1.142609e+00
1.101082e+00
1.120194e+00
1.137786e+00
1.156433e+00
1.120194e+00
1.142609e+00
1.156433e+00
1.178265e+00
1.137786e+00
1.156433e+00
1.174941e+00
1.193146e+00
1.156433e+00
1.178265e+00
1.193146e+00
1.214408e+00
1.174941e+00
1.193146e+00
1.212479e+00
1.230275e+00
1.193146e+00
1.214408e+00
1.230275e+00
1.250992e+00
1.212479e+00
1.230275e+00
1.250330e+00
1.267763e+00
1.230275e+00
1.250992e+00
1.267763e+00
1.287972e+00
1.250330e+00
1.267763e+00
1.288418e+00
1.305552e+00
1.267763e+00
1.287972e+00
1.305552e+00
1.325304e+00
1.288418e+00
1.305552e+00
1.326660e+00
1.343581e+00
1.305552e+00
1.325304e+00
1.343581e+00
1.362954e+00
1.326660e+00
1.343581e+00
1.364968e+00
1.381789e+00
1.343581e+00
1.362954e+00
1.381789e+00
1.400892e+00
1.364968e+00
1.381789e+00
1.403238e+00
1.420106e+00
1.381789e+00
1.400892e+00
1.420106e+00
1.439103e+00
1.403238e+00
1.420106e+00
1.441344e+00
1.458445e+00
1.420106e+00
1.439103e+00
1.458445e+00
1.477580e+00
1.441344e+00
1.458445e+00
1.479092e+00
1.496644e+00
1.458445e+00
1.477580e+00
1.496644e+00
1.516305e+00
1.479092e+00
1.496644e+00
1.516195e+00
1.534347e+00
1.496644e+00
1.516305e+00
1.534347e+00
1.554914e+00
1.516195e+00
1.534347e+00
1.551976e+00
1.570480e+00
1.534347e+00
1.554914e+00
1.570480e+00
1.591221e+00
1.551976e+00
1.570480e+00
1.585474e+00
1.604259e+00
1.570480e+00
1.591221e+00
1.604259e+00
1.625300e+00
1.585474e+00
1.604259e+00
1.616669e+00
1.635951e+00
1.604259e+00
1.625300e+00
1.635951e+00
1.657477e+00
1.616669e+00
1.635951e+00
1.645653e+00
1.665523e+00
1.635951e+00
1.657477e+00
1.665523e+00
1.687619e+00
1.645653e+00
1.665523e+00
1.672513e+00
1.692985e+00
1.665523e+00
1.687619e+00
1.692985e+00
1.715679e+00
1.672513e+00
1.692985e+00
1.697326e+00
1.718373e+00
1.692985e+00
1.715679e+00
1.718373e+00
1.741656e+00
1.697326e+00
1.718373e+00
1.720164e+00
1.741741e+00
1.718373e+00
1.741656e+00
1.741741e+00
1.765578e+00
1.720164e+00
1.741741e+00
1.741101e+00
1.763150e+00
1.741741e+00
1.765578e+00
1.763150e+00
1.787494e+00
1.741101e+00
1.763150e+00
1.760205e+00
1.782666e+00
1.763150e+00
1.787494e+00
1.782666e+00
1.807463e+00
1.760205e+00
1.782666e+00
1.777539e+00
1.800355e+00
1.782666e+00
1.807463e+00
1.800355e+00
1.825550e+00
1.777539e+00
1.800355e+00
1.793164e+00
1.816281e+00
1.800355e+00
1.825550e+00
1.816281e+00
1.841820e+00
1.793164e+00
1.816281e+00
1.807134e+00
1.830505e+00
1.816281e+00
1.841820e+00
1.830505e+00
1.856337e+00
1.807134e+00
1.830505e+00
1.819500e+00
1.843081e+00
1.830505e+00
1.856337e+00
1.843081e+00
1.869161e+00
1.819500e+00
1.843081e+00
1.830307e+00
1.854061e+00
1.843081e+00
1.869161e+00
1.854061e+00
1.880345e+00
1.830307e+00
1.854061e+00
1.839594e+00
1.863487e+00
1.854061e+00
1.880345e+00
1.863487e+00
1.889940e+00
1.839594e+00
1.863487e+00
1.847395e+00
1.871398e+00
1.863487e+00
1.889940e+00
1.871398e+00
1.897987e+00
1.847395e+00
1.871398e+00
1.853739e+00
1.877828e+00
1.871398e+00
1.897987e+00
1.877828e+00
1.904522e+00
1.853739e+00
1.877828e+00
1.858649e+00
1.882801e+00
1.877828e+00
1.904522e+00
1.882801e+00
1.909575e+00
1.858649e+00
1.882801e+00
1.862143e+00
1.886339e+00
1.882801e+00
1.909575e+00
1.886339e+00
1.913168e+00
1.862143e+00
1.886339e+00
1.864234e+00
1.888456e+00
1.886339e+00
1.913168e+00
1.888456e+00
1.915317e+00
1.864234e+00
1.888456e+00
1.864931e+00
1.889161e+00
1.888456e+00
1.915317e+00
1.889161e+00
1.916033e+00
</DataArray>
<DataArray type="Float32" Name="V3" format="ascii">
0.000000e+00
0.000000e+00
2.450816e-02
2.378898e-02
0.000000e+00
0.000000e+00
2.378898e-02
2.294746e-02
2.450816e-02
2.378898e-02
4.895476e-02
4.751712e-02
2.378898e-02
2.294746e-02
4.751712e-02
4.583495e-02
4.895476e-02
4.751712e-02
7.327792e-02
7.112349e-02
4.751712e-02
4.583495e-02
7.112349e-02
6.860260e-02
7.327792e-02
7.112349e-02
9.741612e-02
9.454739e-02
7.112349e-02
6.860260e-02
9.454739e-02
9.119066e-02
9.741612e-02
9.454739e-02
1.213081e-01
1.177283e-01
9.454739e-02
9.119066e-02
1.177283e-01
1.135396e-01
1.213081e-01
1.177283e-01
1.448927e-01
1.406061e-01
1.177283e-01
1.135396e-01
1.406061e-01
1.355901e-01
1.448927e-01
1.406061e-01
1.681094e-01
1.631207e-01
1.406061e-01
1.355901e-01
1.631207e-01
1.572832e-01
1.681094e-01
1.631207e-01
1.908979e-01
1.852129e-01
1.631207e-01
1.572832e-01
1.852129e-01
1.785605e-01
1.908979e-01
1.852129e-01
2.131984e-01
2.068237e-01
1.852129e-01
1.785605e-01
2.068237e-01
1.993638e-01
2.131984e-01
2.068237e-01
2.349518e-01
2.278946e-01
2.068237e-01
1.993638e-01
2.278946e-01
2.196358e-01
2.349518e-01
2.278946e-01
2.560995e-01
2.483679e-01
2.278946e-01
2.196358e-01
2.483679e-01
2.393195e-01
2.560995e-01
2.483679e-01
2.765836e-01
2.681864e-01
2.483679e-01
2.393195e-01
2.681864e-01
2.583588e-01
2.765836e-01
2.681864e-01
2.963472e-01
2.872940e-01
2.681864e-01
2.583588e-01
2.872940e-01
2.766982e-01
2.963472e-01
2.872940e-01
3.153340e-01
3.056351e-01
2.872940e-01
2.766982e-01
3.056351e-01
2.942831e-01
3.153340e-01
3.056351e-01
3.334886e-01
3.231551e-01
3.056351e-01
2.942831e-01
3.231551e-01
3.110598e-01
3.334886e-01
3.231551e-01
3.507568e-01
3.398004e-01
3.231551e-01
3.110598e-01
3.398004e-01
3.269755e-01
3.507568e-01
3.398004e-01
3.670851e-01
3.555184e-01
3.398004e-01
3.269755e-01
3.555184e-01
3.419785e-01
3.670851e-01
3.555184e-01
3.824214e-01
3.702576e-01
3.555184e-01
3.419785e-01
3.702576e-01
3.560182e-01
3.824214e-01
3.702576e-01
3.967145e-01
3.839677e-01
3.702576e-01
3.560182e-01
3.839677e-01
3.690451e-01
3.967145e-01
3.839677e-01
4.099147e-01
3.965996e-01
3.839677e-01
3.690451e-01
3.965996e-01
3.810110e-01
4.099147e-01
3.965996e-01
4.219733e-01
4.081054e-01
3.965996e-01
3.810110e-01
4.081054e-01
3.918689e-01
4.219733e-01
4.081054e-01
4.328431e-01
4.184386e-01
4.081054e-01
3.918689e-01
4.184386e-01
4.015735e-01
4.328431e-01
4.184386e-01
4.424781e-01
4.275542e-01
4.184386e-01
4.015735e-01
4.275542e-01
4.100806e-01
4.424781e-01
4.275542e-01
4.508338e-01
4.354086e-01
4.275542e-01
4.100806e-01
4.354086e-01
4.173479e-01
4.508338e-01
4.354086e-01
4.578671e-01
4.419596e-01
4.354086e-01
4.173479e-01
4.419596e-01
4.233344e-01
4.578671e-01
4.419596e-01
4.635364e-01
4.471668e-01
4.419596e-01
4.233344e-01
4.471668e-01
4.280011e-01
4.635364e-01
4.471668e-01
4.678016e-01
4.509912e-01
4.471668e-01
4.280011e-01
4.509912e-01
4.313108e-01
4.678016e-01
4.509912e-01
4.706241e-01
4.533957e-01
4.509912e-01
4.313108e-01
4.533957e-01
4.332282e-01
4.706241e-01
4.533957e-01
4.719667e-01
4.543448e-01
4.533957e-01
4.332282e-01
4.543448e-01
4.337203e-01
4.719667e-01
4.543448e-01
4.717937e-01
4.538046e-01
4.543448e-01
4.337203e-01
4.538046e-01
4.327560e-01
4.717937e-01
4.538046e-01
4.700707e-01
4.517434e-01
4.538046e-01
4.327560e-01
4.517434e-01
4.303069e-01
4.700707e-01
4.517434e-01
4.667650e-01
4.481309e-01
4.517434e-01
4.303069e-01
4.481309e-01
4.263471e-01
4.667650e-01
4.481309e-01
4.618448e-01
4.429389e-01
4.481309e-01
4.263471e-01
4.429389e-01
4.208534e-01
4.618448e-01
4.429389e-01
4.552796e-01
4.361408e-01
4.429389e-01
4.208534e-01
4.361408e-01
4.138060e-01
4.552796e-01
4.361408e-01
4.470401e-01
4.277118e-01
4.361408e-01
4.138060e-01
4.277118e-01
4.051882e-01
4.470401e-01
4.277118e-01
4.370976e-01
4.176289e-01
4.277118e-01
4.051882e-01
4.176289e-01
3.949873e-01
4.370976e-01
4.176289e-01
4.254247e-01
4.058705e-01
4.176289e-01
3.949873e-01
4.058705e-01
3.831952e-01
4.254247e-01
4.058705e-01
4.119950e-01
3.924166e-01
4.058705e-01
3.831952e-01
3.924166e-01
3.698088e-01
4.119950e-01
3.924166e-01
3.967855e-01
3.772503e-01
3.924166e-01
3.698088e-01
3.772503e-01
3.548313e-01
3.967855e-01
3.772503e-01
3.797839e-01
3.603636e-01
3.772503e-01
3.548313e-01
3.603636e-01
3.382702e-01
3.797839e-01
3.603636e-01
3.610212e-01
3.417839e-01
3.603636e-01
3.382702e-01
3.417839e-01
3.201193e-01
3.610212e-01
3.417839e-01
3.406632e-01
3.216399e-01
3.417839e-01
3.201193e-01
3.216399e-01
3.001724e-01
3.406632e-01
3.216399e-01
3.197612e-01
3.011198e-01
3.216399e-01
3.001724e-01
3.011198e-01
2.799426e-01
3.197612e-01
3.011198e-01
2.997471e-01
2.817817e-01
3.011198e-01
2.799426e-01
2.817817e-01
2.616475e-01
2.997471e-01
2.817817e-01
2.807149e-01
2.635688e-01
2.817817e-01
2.616475e-01
2.635688e-01
2.445468e-01
2.807149e-01
2.635688e-01
2.625329e-01
2.463168e-01
2.635688e-01
2.445468e-01
2.463168e-01
2.284433e-01
2.625329e-01
2.463168e-01
2.450576e-01
2.298466e-01
2.463168e-01
2.284433e-01
2.298466e-01
2.131489e-01
2.450576e-01
2.298466e-01
2.281631e-01
2.140029e-01
2.298466e-01
2.131489e-01
2.140029e-01
1.984972e-01
2.281631e-01
2.140029e-01
2.117407e-01
1.986535e-01
2.140029e-01
1.984972e-01
1.986535e-01
1.843438e-01
2.117407e-01
1.986535e-01
1.956982e-01
1.836879e-01
1.986535e-01
1.843438e-01
1.836879e-01
1.705664e-01
1.956982e-01
1.836879e-01
1.799582e-01
1.690155e-01
1.836879e-01
1.705664e-01
1.690155e-01
1.570649e-01
1.799582e-01
1.690155e-01
1.644569e-01
1.545627e-01
1.690155e-01
1.570649e-01
1.545627e-01
1.437583e-01
1.644569e-01
1.545627e-01
1.491413e-01
1.402707e-01
1.545627e-01
1.437583e-01
1.402707e-01
1.305833e-01
1.491413e-01
1.402707e-01
1.339688e-01
1.260933e-01
1.402707e-01
1.305833e-01
1.260933e-01
1.174911e-01
1.339688e-01
1.260933e-01
1.189047e-01
1.119948e-01
1.260933e-01
1.174911e-01
1.119948e-01
1.044452e-01
1.189047e-01
1.119948e-01
1.039215e-01
9.794801e-02
1.119948e-01
1.044452e-01
9.794801e-02
9.141964e-02
1.039215e-01
9.794801e-02
8.899768e-02
8.393316e-02
9.794801e-02
9.141964e-02
8.393316e-02
7.839657e-02
8.899768e-02
8.393316e-02
7.411648e-02
6.993616e-02
8.393316e-02
7.839657e-02
6.993616e-02
6.536493e-02
7.411648e-02
6.993616e-02
5.926517e-02
5.594762e-02
6.993616e-02
6.536493e-02
5.594762e-02
5.231894e-02
5.926517e-02
5.594762e-02
4.443417e-02
4.196178e-02
5.594762e-02
5.231894e-02
4.196178e-02
3.925698e-02
4.443417e-02
4.196178e-02
2.961636e-02
2.797567e-02
4.196178e-02
3.925698e-02
2.797567e-02
2.618049e-02
2.961636e-02
2.797567e-02
1.480636e-02
1.398830e-02
2.797567e-02
2.618049e-02
1.398830e-02
1.309313e-02
1.480636e-02
1.398830e-02
0.000000e+00
0.000000e+00
1.398830e-02
1.309313e-02
0.000000e+00
0.000000e+00
</DataArray>
<DataArray type="Float32" Name="V4" format="ascii">
8.500000e-01
9.250000e-01
8.500000e-01
9.250000e-01
9.250000e-01
1.000000e+00