<?xml version="1.0"?>
<VTKFile type="UnstructuredGrid" version="0.1" byte_order="LittleEndian" compressor="vtkZLibDataCompressor">
<UnstructuredGrid>
<Piece NumberOfPoints="504" NumberOfCells="126">
<Points>
<DataArray type="Float32" NumberOfComponents="3" format="ascii">
0.000000e+00 4.523829e-01 0.000000e+00
0.000000e+00 4.805828e-01 0.000000e+00
3.610474e-02 4.523910e-01 0.000000e+00
3.609801e-02 4.805853e-01 0.000000e+00
0.000000e+00 4.805828e-01 0.000000e+00
0.000000e+00 5.137500e-01 0.000000e+00
3.609801e-02 4.805853e-01 0.000000e+00
3.609440e-02 5.137500e-01 0.000000e+00
3.610474e-02 4.523910e-01 0.000000e+00
3.609801e-02 4.805853e-01 0.000000e+00
7.220849e-02 4.524062e-01 0.000000e+00
7.219495e-02 4.805936e-01 0.000000e+00
3.609801e-02 4.805853e-01 0.000000e+00
3.609440e-02 5.137500e-01 0.000000e+00
7.219495e-02 4.805936e-01 0.000000e+00
7.218766e-02 5.137500e-01 0.000000e+00
7.220849e-02 4.524062e-01 0.000000e+00
7.219495e-02 4.805936e-01 0.000000e+00
1.083099e-01 4.524315e-01 0.000000e+00
1.082896e-01 4.806073e-01 0.000000e+00
7.219495e-02 4.805936e-01 0.000000e+00
7.218766e-02 5.137500e-01 0.000000e+00
1.082896e-01 4.806073e-01 0.000000e+00
1.082787e-01 5.137500e-01 0.000000e+00
1.083099e-01 4.524315e-01 0.000000e+00
1.082896e-01 4.806073e-01 0.000000e+00
1.444078e-01 4.524669e-01 0.000000e+00
1.443808e-01 4.806265e-01 0.000000e+00
1.082896e-01 4.806073e-01 0.000000e+00
1.082787e-01 5.137500e-01 0.000000e+00
1.443808e-01 4.806265e-01 0.000000e+00
1.443663e-01 5.137500e-01 0.000000e+00
1.444078e-01 4.524669e-01 0.000000e+00
1.443808e-01 4.806265e-01 0.000000e+00
1.805010e-01 4.525124e-01 0.000000e+00
1.804674e-01 4.806511e-01 0.000000e+00
1.443808e-01 4.806265e-01 0.000000e+00
1.443663e-01 5.137500e-01 0.000000e+00
1.804674e-01 4.806511e-01 0.000000e+00
1.804493e-01 5.137500e-01 0.000000e+00
1.805010e-01 4.525124e-01 0.000000e+00
1.804674e-01 4.806511e-01 0.000000e+00
2.165883e-01 4.525679e-01 0.000000e+00
2.165482e-01 4.806811e-01 0.000000e+00
1.804674e-01 4.806511e-01 0.000000e+00
1.804493e-01 5.137500e-01 0.000000e+00
2.165482e-01 4.806811e-01 0.000000e+00
2.165267e-01 5.137500e-01 0.000000e+00
2.165883e-01 4.525679e-01 0.000000e+00
2.165482e-01 4.806811e-01 0.000000e+00
2.526686e-01 4.526334e-01 0.000000e+00
2.526221e-01 4.807166e-01 0.000000e+00
2.165482e-01 4.806811e-01 0.000000e+00
2.165267e-01 5.137500e-01 0.000000e+00
2.526221e-01 4.807166e-01 0.000000e+00
2.525972e-01 5.137500e-01 0.000000e+00
2.526686e-01 4.526334e-01 0.000000e+00
2.526221e-01 4.807166e-01 0.000000e+00
2.887405e-01 4.527088e-01 0.000000e+00
2.886877e-01 4.807575e-01 0.000000e+00
2.526221e-01 4.807166e-01 0.000000e+00
2.525972e-01 5.137500e-01 0.000000e+00
2.886877e-01 4.807575e-01 0.000000e+00
2.886596e-01 5.137500e-01 0.000000e+00
2.887405e-01 4.527088e-01 0.000000e+00
2.886877e-01 4.807575e-01 0.000000e+00
3.248029e-01 4.527941e-01 0.000000e+00
3.247440e-01 4.808037e-01 0.000000e+00
2.886877e-01 4.807575e-01 0.000000e+00
2.886596e-01 5.137500e-01 0.000000e+00
3.247440e-01 4.808037e-01 0.000000e+00
3.247128e-01 5.137500e-01 0.000000e+00
3.248029e-01 4.527941e-01 0.000000e+00
3.247440e-01 4.808037e-01 0.000000e+00
3.608545e-01 4.528892e-01 0.000000e+00
3.607897e-01 4.808553e-01 0.000000e+00
3.247440e-01 4.808037e-01 0.000000e+00
3.247128e-01 5.137500e-01 0.000000e+00
3.607897e-01 4.808553e-01 0.000000e+00
3.607556e-01 5.137500e-01 0.000000e+00
3.608545e-01 4.528892e-01 0.000000e+00
3.607897e-01 4.808553e-01 0.000000e+00
3.968939e-01 4.529941e-01 0.000000e+00
3.968235e-01 4.809121e-01 0.000000e+00
3.607897e-01 4.808553e-01 0.000000e+00
3.607556e-01 5.137500e-01 0.000000e+00
3.968235e-01 4.809121e-01 0.000000e+00
3.967866e-01 5.137500e-01 0.000000e+00
3.968939e-01 4.529941e-01 0.000000e+00
3.968235e-01 4.809121e-01 0.000000e+00
4.329198e-01 4.531087e-01 0.000000e+00
4.328440e-01 4.809742e-01 0.000000e+00
3.968235e-01 4.809121e-01 0.000000e+00
3.967866e-01 5.137500e-01 0.000000e+00
4.328440e-01 4.809742e-01 0.000000e+00
4.328047e-01 5.137500e-01 0.000000e+00
4.329198e-01 4.531087e-01 0.000000e+00
4.328440e-01 4.809742e-01 0.000000e+00
4.689309e-01 4.532328e-01 0.000000e+00
4.688500e-01 4.810415e-01 0.000000e+00
4.328440e-01 4.809742e-01 0.000000e+00
4.328047e-01 5.137500e-01 0.000000e+00
4.688500e-01 4.810415e-01 0.000000e+00
4.688085e-01 5.137500e-01 0.000000e+00
4.689309e-01 4.532328e-01 0.000000e+00
4.688500e-01 4.810415e-01 0.000000e+00
5.049257e-01 4.533664e-01 0.000000e+00
5.048401e-01 4.811140e-01 0.000000e+00
4.688500e-01 4.810415e-01 0.000000e+00
4.688085e-01 5.137500e-01 0.000000e+00
5.048401e-01 4.811140e-01 0.000000e+00
5.047968e-01 5.137500e-01 0.000000e+00
5.049257e-01 4.533664e-01 0.000000e+00
5.048401e-01 4.811140e-01 0.000000e+00
5.409027e-01 4.535095e-01 0.000000e+00
5.408130e-01 4.811917e-01 0.000000e+00
5.048401e-01 4.811140e-01 0.000000e+00
5.047968e-01 5.137500e-01 0.000000e+00
5.408130e-01 4.811917e-01 0.000000e+00
5.407682e-01 5.137500e-01 0.000000e+00
5.409027e-01 4.535095e-01 0.000000e+00
5.408130e-01 4.811917e-01 0.000000e+00
5.768604e-01 4.536618e-01 0.000000e+00
5.767671e-01 4.812744e-01 0.000000e+00
5.408130e-01 4.811917e-01 0.000000e+00
5.407682e-01 5.137500e-01 0.000000e+00
5.767671e-01 4.812744e-01 0.000000e+00
5.767215e-01 5.137500e-01 0.000000e+00
5.768604e-01 4.536618e-01 0.000000e+00
5.767671e-01 4.812744e-01 0.000000e+00
6.127973e-01 4.538233e-01 0.000000e+00
6.127010e-01 4.813622e-01 0.000000e+00
5.767671e-01 4.812744e-01 0.000000e+00
5.767215e-01 5.137500e-01 0.000000e+00
6.127010e-01 4.813622e-01 0.000000e+00
6.126552e-01 5.137500e-01 0.000000e+00
6.127973e-01 4.538233e-01 0.000000e+00
6.127010e-01 4.813622e-01 0.000000e+00
6.487115e-01 4.539939e-01 0.000000e+00
6.486132e-01 4.814550e-01 0.000000e+00
6.127010e-01 4.813622e-01 0.000000e+00
6.126552e-01 5.137500e-01 0.000000e+00
6.486132e-01 4.814550e-01 0.000000e+00
6.485680e-01 5.137500e-01 0.000000e+00
6.487115e-01 4.539939e-01 0.000000e+00
6.486132e-01 4.814550e-01 0.000000e+00
6.846015e-01 4.541735e-01 0.000000e+00
6.845022e-01 4.815528e-01 0.000000e+00
6.486132e-01 4.814550e-01 0.000000e+00
6.485680e-01 5.137500e-01 0.000000e+00
6.845022e-01 4.815528e-01 0.000000e+00
6.844585e-01 5.137500e-01 0.000000e+00
6.846015e-01 4.541735e-01 0.000000e+00
6.845022e-01 4.815528e-01 0.000000e+00
7.204653e-01 4.543619e-01 0.000000e+00
7.203663e-01 4.816555e-01 0.000000e+00
6.845022e-01 4.815528e-01 0.000000e+00
6.844585e-01 5.137500e-01 0.000000e+00
7.203663e-01 4.816555e-01 0.000000e+00
7.203255e-01 5.137500e-01 0.000000e+00
7.204653e-01 4.543619e-01 0.000000e+00
7.203663e-01 4.816555e-01 0.000000e+00
7.563009e-01 4.545591e-01 0.000000e+00
7.562039e-01 4.817632e-01 0.000000e+00
7.203663e-01 4.816555e-01 0.000000e+00
7.203255e-01 5.137500e-01 0.000000e+00
7.562039e-01 4.817632e-01 0.000000e+00
7.561675e-01 5.137500e-01 0.000000e+00
7.563009e-01 4.545591e-01 0.000000e+00
7.562039e-01 4.817632e-01 0.000000e+00
7.921063e-01 4.547650e-01 0.000000e+00
7.920133e-01 4.818758e-01 0.000000e+00
7.562039e-01 4.817632e-01 0.000000e+00
7.561675e-01 5.137500e-01 0.000000e+00
7.920133e-01 4.818758e-01 0.000000e+00
7.919833e-01 5.137500e-01 0.000000e+00
7.921063e-01 4.547650e-01 0.000000e+00
7.920133e-01 4.818758e-01 0.000000e+00
8.278793e-01 4.549793e-01 0.000000e+00
8.277928e-01 4.819934e-01 0.000000e+00
7.920133e-01 4.818758e-01 0.000000e+00
7.919833e-01 5.137500e-01 0.000000e+00
8.277928e-01 4.819934e-01 0.000000e+00
8.277718e-01 5.137500e-01 0.000000e+00
8.278793e-01 4.549793e-01 0.000000e+00
8.277928e-01 4.819934e-01 0.000000e+00
8.636172e-01 4.552021e-01 0.000000e+00
8.635407e-01 4.821160e-01 0.000000e+00
8.277928e-01 4.819934e-01 0.000000e+00
8.277718e-01 5.137500e-01 0.000000e+00
8.635407e-01 4.821160e-01 0.000000e+00
8.635318e-01 5.137500e-01 0.000000e+00
8.636172e-01 4.552021e-01 0.000000e+00
8.635407e-01 4.821160e-01 0.000000e+00
8.993176e-01 4.554333e-01 0.000000e+00
8.992551e-01 4.822437e-01 0.000000e+00
8.635407e-01 4.821160e-01 0.000000e+00
8.635318e-01 5.137500e-01 0.000000e+00
8.992551e-01 4.822437e-01 0.000000e+00
8.992625e-01 5.137500e-01 0.000000e+00
8.993176e-01 4.554333e-01 0.000000e+00
8.992551e-01 4.822437e-01 0.000000e+00
9.349774e-01 4.556728e-01 0.000000e+00
9.349343e-01 4.823766e-01 0.000000e+00
8.992551e-01 4.822437e-01 0.000000e+00
8.992625e-01 5.137500e-01 0.000000e+00
9.349343e-01 4.823766e-01 0.000000e+00
9.349632e-01 5.137500e-01 0.000000e+00
9.349774e-01 4.556728e-01 0.000000e+00
9.349343e-01 4.823766e-01 0.000000e+00
9.705933e-01 4.559206e-01 0.000000e+00
9.705765e-01 4.825150e-01 0.000000e+00
9.349343e-01 4.823766e-01 0.000000e+00
9.349632e-01 5.137500e-01 0.000000e+00
9.705765e-01 4.825150e-01 0.000000e+00
9.706336e-01 5.137500e-01 0.000000e+00
9.705933e-01 4.559206e-01 0.000000e+00
9.705765e-01 4.825150e-01 0.000000e+00
1.006162e+00 4.561766e-01 0.000000e+00
1.006180e+00 4.826590e-01 0.000000e+00
9.705765e-01 4.825150e-01 0.000000e+00
9.706336e-01 5.137500e-01 0.000000e+00
1.006180e+00 4.826590e-01 0.000000e+00
1.006274e+00 5.137500e-01 0.000000e+00
1.006162e+00 4.561766e-01 0.000000e+00
1.006180e+00 4.826590e-01 0.000000e+00
1.041678e+00 4.564409e-01 0.000000e+00
1.041743e+00 4.828092e-01 0.000000e+00
1.006180e+00 4.826590e-01 0.000000e+00
1.006274e+00 5.137500e-01 0.000000e+00
1.041743e+00 4.828092e-01 0.000000e+00
1.041884e+00 5.137500e-01 0.000000e+00
1.041678e+00 4.564409e-01 0.000000e+00
1.041743e+00 4.828092e-01 0.000000e+00
1.077137e+00 4.567136e-01 0.000000e+00
1.077263e+00 4.829658e-01 0.000000e+00
1.041743e+00 4.828092e-01 0.000000e+00
1.041884e+00 5.137500e-01 0.000000e+00
1.077263e+00 4.829658e-01 0.000000e+00
1.077467e+00 5.137500e-01 0.000000e+00
1.077137e+00 4.567136e-01 0.000000e+00
1.077263e+00 4.829658e-01 0.000000e+00
1.112534e+00 4.569948e-01 0.000000e+00
1.112740e+00 4.831298e-01 0.000000e+00
1.077263e+00 4.829658e-01 0.000000e+00
1.077467e+00 5.137500e-01 0.000000e+00
1.112740e+00 4.831298e-01 0.000000e+00
1.113025e+00 5.137500e-01 0.000000e+00
1.112534e+00 4.569948e-01 0.000000e+00
[...]
<PointData>
<DataArray type="Float32" Name="V1" format="ascii">
1.236835e+02
4.596091e+01
1.237302e+02
4.600766e+01
4.796354e+01
9.989960e+00
4.798346e+01
1.000988e+01
1.237494e+02
4.597956e+01
1.238657e+02
4.609577e+01
4.800031e+01
1.000202e+01
4.805444e+01
1.005615e+01
1.239119e+02
4.604509e+01
1.241039e+02
4.623701e+01
4.808667e+01
1.003875e+01
4.817931e+01
1.013139e+01
1.241749e+02
4.616233e+01
1.244433e+02
4.643074e+01
4.822635e+01
1.010385e+01
4.835736e+01
1.023486e+01
1.245389e+02
4.633161e+01
1.248847e+02
4.667739e+01
4.841957e+01
1.019736e+01
4.858915e+01
1.036693e+01
1.250050e+02
4.655340e+01
1.254292e+02
4.697753e+01
4.866679e+01
1.031947e+01
4.887531e+01
1.052800e+01
1.255744e+02
4.682834e+01
1.260780e+02
4.733196e+01
4.896864e+01
1.047052e+01
4.921664e+01
1.071852e+01
1.262484e+02
4.715718e+01
1.268328e+02
4.774160e+01
4.932591e+01
1.065091e+01
4.961405e+01
1.093906e+01
1.270287e+02
4.754079e+01
1.276954e+02
4.820754e+01
4.973956e+01
1.086117e+01
5.006864e+01
1.119025e+01
1.279173e+02
4.798024e+01
1.286682e+02
4.873106e+01
5.021070e+01
1.110190e+01
5.058165e+01
1.147285e+01
1.289165e+02
4.847673e+01
1.297534e+02
4.931357e+01
5.074064e+01
1.137381e+01
5.115451e+01
1.178768e+01
1.300288e+02
4.903163e+01
1.309538e+02
4.995670e+01
5.133082e+01
1.167772e+01
5.178882e+01
1.213572e+01
1.312569e+02
4.964650e+01
1.322726e+02
5.066225e+01
5.198290e+01
1.201455e+01
5.248640e+01
1.251805e+01
1.326039e+02
5.032308e+01
1.337130e+02
5.143220e+01
5.269873e+01
1.238537e+01
5.324925e+01
1.293588e+01
1.340733e+02
5.106332e+01
1.352788e+02
5.226878e+01
5.348036e+01
1.279135e+01
5.407961e+01
1.339060e+01
1.356688e+02
5.186938e+01
1.369739e+02
5.317442e+01
5.433010e+01
1.323383e+01
5.497999e+01
1.388373e+01
1.373944e+02
5.274367e+01
1.388025e+02
5.415180e+01
5.525045e+01
1.371433e+01
5.595312e+01
1.441701e+01
1.392544e+02
5.368883e+01
1.407694e+02
5.520387e+01
5.624423e+01
1.423455e+01
5.700207e+01
1.499238e+01
1.412534e+02
5.470780e+01
1.428794e+02
5.633384e+01
5.731452e+01
1.479639e+01
5.813019e+01
1.561207e+01
1.433962e+02
5.580382e+01
1.451377e+02
5.754525e+01
5.846473e+01
1.540204e+01
5.934124e+01
1.627855e+01
1.456881e+02
5.698046e+01
1.475496e+02
5.884197e+01
5.969861e+01
1.605397e+01
6.063933e+01
1.699469e+01
1.481341e+02
5.824168e+01
1.501207e+02
6.022822e+01
6.102033e+01
1.675500e+01
6.202910e+01
1.776376e+01
1.507398e+02
5.959187e+01
1.528566e+02
6.170863e+01
6.243449e+01
1.750838e+01
6.351565e+01
1.858954e+01
1.535104e+02
6.103590e+01
1.557628e+02
6.328827e+01
6.394621e+01
1.831790e+01
6.510476e+01
1.947645e+01
1.564511e+02
6.257921e+01
1.588446e+02
6.497271e+01
6.556117e+01
1.918797e+01
6.680288e+01
2.042968e+01
1.595665e+02
6.422789e+01
1.621066e+02
6.676806e+01
6.728575e+01
2.012378e+01
6.861735e+01
2.145538e+01
1.628604e+02
6.598880e+01
1.655527e+02
6.868105e+01
6.912712e+01
2.113154e+01
7.055652e+01
2.256095e+01
1.663356e+02
6.786974e+01
1.691850e+02
7.071912e+01
7.109337e+01
2.221872e+01
7.263001e+01
2.375536e+01
1.699927e+02
6.987961e+01
1.730035e+02
7.289048e+01
7.319374e+01
2.339441e+01
7.484895e+01
2.504961e+01
1.738296e+02
7.202868e+01
1.770052e+02
7.520429e+01
7.543884e+01
2.466977e+01
7.722641e+01
2.645734e+01
1.778403e+02
7.432890e+01
1.811822e+02
7.767073e+01
7.784092e+01
2.605872e+01
7.977786e+01
2.799566e+01
1.820132e+02
7.679433e+01
1.855200e+02
8.030121e+01
8.041432e+01
2.757876e+01
8.252181e+01
2.968625e+01
1.863287e+02
7.944164e+01
1.899956e+02
8.310847e+01
8.317588e+01
2.925219e+01
8.548068e+01
3.155699e+01
1.907570e+02
8.229073e+01
1.945730e+02
8.610672e+01
8.614547e+01
3.110778e+01
8.868179e+01
3.364409e+01
1.952536e+02
8.536546e+01
1.991998e+02
8.931167e+01
8.934663e+01
3.318324e+01
9.215871e+01
3.599532e+01
1.997552e+02
8.869440e+01
2.038012e+02
9.274037e+01
9.280680e+01
3.552888e+01
9.595266e+01
3.867474e+01
2.041734e+02
9.231148e+01
2.082728e+02
9.641088e+01
9.655690e+01
3.821347e+01
1.001137e+02
4.177031e+01
2.083871e+02
9.625694e+01
2.124727e+02
1.003425e+02
1.006282e+02
4.133434e+01
1.047008e+02
4.540697e+01
2.122320e+02
1.005802e+02
2.162124e+02
1.045606e+02
1.050415e+02
4.503698e+01
1.097779e+02
4.977334e+01
2.154818e+02
1.053533e+02
2.192510e+02
1.091224e+02
1.097752e+02
4.955904e+01
1.154039e+02
5.518767e+01
2.177995e+02
1.107309e+02
2.213053e+02
1.142366e+02
1.146781e+02
5.535335e+01
1.216250e+02
6.230025e+01
2.185498e+02
1.172255e+02
2.221236e+02
1.207993e+02
1.192701e+02
6.360779e+01
1.284638e+02
7.280149e+01
2.172482e+02
1.262554e+02
2.217397e+02
1.307469e+02
1.237315e+02
7.866989e+01
1.343803e+02
8.931865e+01
2.179910e+02
1.345263e+02
2.221322e+02
1.386676e+02
1.320085e+02
8.975656e+01
1.385673e+02
9.631535e+01
2.207984e+02
1.399269e+02
2.258530e+02
1.449815e+02
1.382380e+02
9.644887e+01
1.442704e+02
1.024813e+02
2.256434e+02
1.450900e+02
2.313813e+02
1.508279e+02
1.444108e+02
1.023458e+02
1.500481e+02
1.079831e+02
2.318478e+02
1.502824e+02
2.380605e+02
1.564952e+02
1.505441e+02
1.076312e+02
1.558264e+02
1.129134e+02
2.389369e+02
1.555199e+02
2.454230e+02
1.620060e+02
1.565544e+02
1.124104e+02
1.615005e+02
1.173565e+02
2.465606e+02
1.607461e+02
2.531473e+02
1.673328e+02
1.623882e+02
1.167497e+02
1.670106e+02
1.213721e+02
2.544467e+02
1.658923e+02
2.609888e+02
1.724344e+02
1.679987e+02
1.207003e+02
1.723045e+02
1.250062e+02
2.623781e+02
1.708926e+02
2.687554e+02
1.772700e+02
1.733450e+02
1.243016e+02
1.773376e+02
1.282942e+02
2.701790e+02
1.756896e+02
2.762931e+02
1.818037e+02
1.783916e+02
1.275830e+02
1.820718e+02
1.312631e+02
2.777069e+02
1.802348e+02
2.834777e+02
1.860056e+02
1.831085e+02
1.305660e+02
1.864756e+02
1.339331e+02
2.848462e+02
1.844883e+02
2.902089e+02
1.898510e+02
1.874706e+02
1.332665e+02
1.905232e+02
1.363191e+02
2.915033e+02
1.884176e+02
2.964060e+02
1.933204e+02
1.914572e+02
1.356954e+02
1.941937e+02
1.384320e+02
2.976030e+02
1.919966e+02
3.020044e+02
1.963981e+02
1.950517e+02
1.378608e+02
1.974704e+02
1.402796e+02
3.030853e+02
1.952044e+02
3.069530e+02
1.990721e+02
1.982407e+02
1.397683e+02
2.003401e+02
1.418676e+02
3.079028e+02
1.980244e+02
3.112114e+02
2.013330e+02
2.010137e+02
1.414216e+02
2.027924e+02
1.432002e+02
3.120186e+02
2.004437e+02
3.147486e+02
2.031737e+02
2.033625e+02
1.428235e+02
2.048192e+02
1.442802e+02
3.154041e+02
2.024523e+02
3.175411e+02
2.045893e+02
2.052808e+02
1.439758e+02
2.064146e+02
1.451097e+02
3.180381e+02
2.040427e+02
3.195716e+02
2.055761e+02
2.067638e+02
1.448798e+02
2.075742e+02
1.456901e+02
3.199055e+02
2.052091e+02
3.208282e+02
2.061318e+02
2.078083e+02
1.455361e+02
2.082947e+02
1.460225e+02
3.209959e+02
2.059476e+02
3.213039e+02
2.062556e+02
2.084122e+02
1.459453e+02
2.085744e+02
1.461074e+02
</DataArray>
<DataArray type="Float32" Name="V2" format="ascii">
4.523829e-01
4.805828e-01
4.531505e-01
4.813359e-01
4.805828e-01
5.137500e-01
4.813359e-01
5.144902e-01
4.531505e-01
4.813359e-01
4.554432e-01
4.835948e-01
4.813359e-01
5.144902e-01
4.835948e-01
5.167097e-01
4.554432e-01
4.835948e-01
4.592604e-01
4.873559e-01
4.835948e-01
5.167097e-01
4.873559e-01
5.204052e-01
4.592604e-01
4.873559e-01
4.645969e-01
4.926138e-01
4.873559e-01
5.204052e-01
4.926138e-01
5.255713e-01
4.645969e-01
4.926138e-01
4.714447e-01
4.993608e-01
4.926138e-01
5.255713e-01
4.993608e-01
5.322007e-01
4.714447e-01
4.993608e-01
4.797939e-01
5.075872e-01
4.993608e-01
5.322007e-01
5.075872e-01
5.402835e-01
4.797939e-01
5.075872e-01
4.896323e-01
5.172808e-01
5.075872e-01
5.402835e-01
5.172808e-01
5.498081e-01
4.896323e-01
5.172808e-01
5.009455e-01
5.284276e-01
5.172808e-01
5.498081e-01
5.284276e-01
5.607605e-01
5.009455e-01
5.284276e-01
5.137171e-01
5.410113e-01
5.284276e-01
5.607605e-01
5.410113e-01
5.731247e-01
5.137171e-01
5.410113e-01
5.279282e-01
5.550134e-01
5.410113e-01
5.731247e-01
5.550134e-01
5.868826e-01
5.279282e-01
5.550134e-01
5.435581e-01
5.704135e-01
5.550134e-01
5.868826e-01
5.704135e-01
6.020141e-01
5.435581e-01
5.704135e-01
5.605837e-01
5.871889e-01
5.704135e-01
6.020141e-01
5.871889e-01
6.184970e-01
5.605837e-01
5.871889e-01
5.789800e-01
6.053149e-01
5.871889e-01
6.184970e-01
6.053149e-01
6.363070e-01
5.789800e-01
6.053149e-01
5.987199e-01
6.247648e-01
6.053149e-01
6.363070e-01
6.247648e-01
6.554178e-01
5.987199e-01
6.247648e-01
6.197740e-01
6.455099e-01
6.247648e-01
6.554178e-01
6.455099e-01
6.758013e-01
6.197740e-01
6.455099e-01
6.421112e-01
6.675193e-01
6.455099e-01
6.758013e-01
6.675193e-01
6.974271e-01
6.421112e-01
6.675193e-01
6.656982e-01
6.907605e-01
6.675193e-01
6.974271e-01
6.907605e-01
7.202634e-01
6.656982e-01
6.907605e-01
6.904998e-01
7.151987e-01
6.907605e-01
7.202634e-01
7.151987e-01
7.442759e-01
6.904998e-01
7.151987e-01
7.164787e-01
7.407974e-01
7.151987e-01
7.442759e-01
7.407974e-01
7.694290e-01
7.164787e-01
7.407974e-01
7.435958e-01
7.675183e-01
7.407974e-01
7.694290e-01
7.675183e-01
7.956849e-01
7.435958e-01
7.675183e-01
7.718102e-01
7.953211e-01
7.675183e-01
7.956849e-01
7.953211e-01
8.230043e-01
7.718102e-01
7.953211e-01
8.010789e-01
8.241638e-01
7.953211e-01
8.230043e-01
8.241638e-01
8.513462e-01
8.010789e-01
8.241638e-01
8.313572e-01
8.540028e-01
8.241638e-01
8.513462e-01
8.540028e-01
8.806679e-01
8.313572e-01
8.540028e-01
8.625986e-01
8.847927e-01
8.540028e-01
8.806679e-01
8.847927e-01
9.109250e-01
8.625986e-01
8.847927e-01
8.947546e-01
9.164865e-01
8.847927e-01
9.109250e-01
9.164865e-01
9.420720e-01
8.947546e-01
9.164865e-01
9.277751e-01
9.490356e-01
9.164865e-01
9.420720e-01
9.490356e-01
9.740618e-01
9.277751e-01
9.490356e-01
9.616081e-01
9.823899e-01
9.490356e-01
9.740618e-01
9.823899e-01
1.006846e+00
9.616081e-01
9.823899e-01
9.961997e-01
1.016498e+00
9.823899e-01
1.006846e+00
1.016498e+00
1.040376e+00
9.961997e-01
1.016498e+00
1.031494e+00
1.051308e+00
1.016498e+00
1.040376e+00
1.051308e+00
1.074600e+00
1.031494e+00
1.051308e+00
1.067434e+00
1.086764e+00
1.051308e+00
1.074600e+00
1.086764e+00
1.109469e+00
1.067434e+00
1.086764e+00
1.103959e+00
1.122813e+00
1.086764e+00
1.109469e+00
1.122813e+00
1.144932e+00
1.103959e+00
1.122813e+00
1.141008e+00
1.159397e+00
1.122813e+00
1.144932e+00
1.159397e+00
1.180936e+00
1.141008e+00
1.159397e+00
1.178515e+00
1.196460e+00
1.159397e+00
1.180936e+00
1.196460e+00
1.217433e+00
1.178515e+00
1.196460e+00
1.216414e+00
1.233945e+00
1.196460e+00
1.217433e+00
1.233945e+00
1.254372e+00
1.216414e+00
1.233945e+00
1.254633e+00
1.271792e+00
1.233945e+00
1.254372e+00
1.271792e+00
1.291707e+00
1.254633e+00
1.271792e+00
1.293096e+00
1.309943e+00
1.271792e+00
1.291707e+00
1.309943e+00
1.329394e+00
1.293096e+00
1.309943e+00
1.331724e+00
1.348337e+00
1.309943e+00
1.329394e+00
1.348337e+00
1.367395e+00
1.331724e+00
1.348337e+00
1.370429e+00
1.386914e+00
1.348337e+00
1.367395e+00
1.386914e+00
1.405677e+00
1.370429e+00
1.386914e+00
1.409111e+00
1.425605e+00
1.386914e+00
1.405677e+00
1.425605e+00
1.444222e+00
1.409111e+00
1.425605e+00
1.447653e+00
1.464332e+00
1.425605e+00
1.444222e+00
1.464332e+00
1.483021e+00
1.447653e+00
1.464332e+00
1.485887e+00
1.502965e+00
1.464332e+00
1.483021e+00
1.502965e+00
1.522068e+00
1.485887e+00
1.502965e+00
1.523543e+00
1.541218e+00
1.502965e+00
1.522068e+00
1.541218e+00
1.561210e+00
1.523543e+00
1.541218e+00
1.560133e+00
1.578246e+00
1.541218e+00
1.561210e+00
1.578246e+00
1.598598e+00
1.560133e+00
1.578246e+00
1.594516e+00
1.612864e+00
1.578246e+00
1.598598e+00
1.612864e+00
1.633433e+00
1.594516e+00
1.612864e+00
1.626554e+00
1.645362e+00
1.612864e+00
1.633433e+00
1.645362e+00
1.666391e+00
1.626554e+00
1.645362e+00
1.656323e+00
1.675706e+00
1.645362e+00
1.666391e+00
1.675706e+00
1.697295e+00
1.656323e+00
1.675706e+00
1.683914e+00
1.703901e+00
1.675706e+00
1.697295e+00
1.703901e+00
1.726090e+00
1.683914e+00
1.703901e+00
1.709403e+00
1.729976e+00
1.703901e+00
1.726090e+00
1.729976e+00
1.752762e+00
1.709403e+00
1.729976e+00
1.732866e+00
1.753982e+00
1.729976e+00
1.752762e+00
1.753982e+00
1.777334e+00
1.732866e+00
1.753982e+00
1.754376e+00
1.775978e+00
1.753982e+00
1.777334e+00
1.775978e+00
1.799852e+00
1.754376e+00
1.775978e+00
1.774001e+00
1.796030e+00
1.775978e+00
1.799852e+00
1.796030e+00
1.820372e+00
1.774001e+00
1.796030e+00
1.791807e+00
1.814206e+00
1.796030e+00
1.820372e+00
1.814206e+00
1.838959e+00
1.791807e+00
1.814206e+00
1.807857e+00
1.830570e+00
1.814206e+00
1.838959e+00
1.830570e+00
1.855679e+00
1.807857e+00
1.830570e+00
1.822206e+00
1.845184e+00
1.830570e+00
1.855679e+00
1.845184e+00
1.870597e+00
1.822206e+00
1.845184e+00
1.834907e+00
1.858104e+00
1.845184e+00
1.870597e+00
1.858104e+00
1.883775e+00
1.834907e+00
1.858104e+00
1.846005e+00
1.869382e+00
1.858104e+00
1.883775e+00
1.869382e+00
1.895267e+00
1.846005e+00
1.869382e+00
1.855542e+00
1.879065e+00
1.869382e+00
1.895267e+00
1.879065e+00
1.905126e+00
1.855542e+00
1.879065e+00
1.863552e+00
1.887191e+00
1.879065e+00
1.905126e+00
1.887191e+00
1.913393e+00
1.863552e+00
1.887191e+00
1.870065e+00
1.893795e+00
1.887191e+00
1.913393e+00
1.893795e+00
1.920107e+00
1.870065e+00
1.893795e+00
1.875106e+00
1.898902e+00
1.893795e+00
1.920107e+00
1.898902e+00
1.925297e+00
1.875106e+00
1.898902e+00
1.878694e+00
1.902536e+00
1.898902e+00
1.925297e+00
1.902536e+00
1.928988e+00
1.878694e+00
1.902536e+00
1.880841e+00
1.904710e+00
1.902536e+00
1.928988e+00
1.904710e+00
1.931196e+00
1.880841e+00
1.904710e+00
1.881556e+00
1.905433e+00
1.904710e+00
1.931196e+00
1.905433e+00
1.931931e+00
</DataArray>
<DataArray type="Float32" Name="V3" format="ascii">
0.000000e+00
0.000000e+00
2.481509e-02
2.410546e-02
0.000000e+00
0.000000e+00
2.410546e-02
2.327504e-02
2.481509e-02
2.410546e-02
4.956814e-02
4.814960e-02
2.410546e-02
2.327504e-02
4.814960e-02
4.648960e-02
4.956814e-02
4.814960e-02
7.419678e-02
7.207098e-02
4.814960e-02
4.648960e-02
7.207098e-02
6.958331e-02
7.419678e-02
7.207098e-02
9.863903e-02
9.580840e-02
7.207098e-02
6.958331e-02
9.580840e-02
9.249591e-02
9.863903e-02
9.580840e-02
1.228331e-01
1.193009e-01
9.580840e-02
9.249591e-02
1.193009e-01
1.151673e-01
1.228331e-01
1.193009e-01
1.467175e-01
1.424877e-01
1.193009e-01
1.151673e-01
1.424877e-01
1.375378e-01
1.467175e-01
1.424877e-01
1.702310e-01
1.653086e-01
1.424877e-01
1.375378e-01
1.653086e-01
1.595479e-01
1.702310e-01
1.653086e-01
1.933130e-01
1.877035e-01
1.653086e-01
1.595479e-01
1.877035e-01
1.811387e-01
1.933130e-01
1.877035e-01
2.159033e-01
2.096131e-01
1.877035e-01
1.811387e-01
2.096131e-01
2.022515e-01
2.159033e-01
2.096131e-01
2.379421e-01
2.309785e-01
2.096131e-01
2.022515e-01
2.309785e-01
2.228284e-01
2.379421e-01
2.309785e-01
2.593706e-01
2.517414e-01
2.309785e-01
2.228284e-01
2.517414e-01
2.428121e-01
2.593706e-01
2.517414e-01
2.801303e-01
2.718443e-01
2.517414e-01
2.428121e-01
2.718443e-01
2.621459e-01
2.801303e-01
2.718443e-01
3.001638e-01
2.912304e-01
2.718443e-01
2.621459e-01
2.912304e-01
2.807739e-01
3.001638e-01
2.912304e-01
3.194145e-01
3.098439e-01
2.912304e-01
2.807739e-01
3.098439e-01
2.986410e-01
3.194145e-01
3.098439e-01
3.378265e-01
3.276296e-01
3.098439e-01
2.986410e-01
3.276296e-01
3.156930e-01
3.378265e-01
3.276296e-01
3.553451e-01
3.445334e-01
3.276296e-01
3.156930e-01
3.445334e-01
3.318767e-01
3.553451e-01
3.445334e-01
3.719166e-01
3.605025e-01
3.445334e-01
3.318767e-01
3.605025e-01
3.471400e-01
3.719166e-01
3.605025e-01
3.874883e-01
3.754849e-01
3.605025e-01
3.471400e-01
3.754849e-01
3.614318e-01
3.874883e-01
3.754849e-01
4.020088e-01
3.894297e-01
3.754849e-01
3.614318e-01
3.894297e-01
3.747021e-01
4.020088e-01
3.894297e-01
4.154277e-01
4.022876e-01
3.894297e-01
3.747021e-01
4.022876e-01
3.869024e-01
4.154277e-01
4.022876e-01
4.276962e-01
4.140102e-01
4.022876e-01
3.869024e-01
4.140102e-01
3.979852e-01
4.276962e-01
4.140102e-01
4.387666e-01
4.245507e-01
4.140102e-01
3.979852e-01
4.245507e-01
4.079048e-01
4.387666e-01
4.245507e-01
4.485927e-01
4.338637e-01
4.245507e-01
4.079048e-01
4.338637e-01
4.166166e-01
4.485927e-01
4.338637e-01
4.571296e-01
4.419052e-01
4.338637e-01
4.166166e-01
4.419052e-01
4.240778e-01
4.571296e-01
4.419052e-01
4.643338e-01
4.486327e-01
4.419052e-01
4.240778e-01
4.486327e-01
4.302471e-01
4.643338e-01
4.486327e-01
4.701637e-01
4.540054e-01
4.486327e-01
4.302471e-01
4.540054e-01
4.350850e-01
4.701637e-01
4.540054e-01
4.745786e-01
4.579841e-01
4.540054e-01
4.350850e-01
4.579841e-01
4.385540e-01
4.745786e-01
4.579841e-01
4.775398e-01
4.605312e-01
4.579841e-01
4.385540e-01
4.605312e-01
4.406182e-01
4.775398e-01
4.605312e-01
4.790100e-01
4.616110e-01
4.605312e-01
4.406182e-01
4.616110e-01
4.412443e-01
4.790100e-01
4.616110e-01
4.789533e-01
4.611896e-01
4.616110e-01
4.412443e-01
4.611896e-01
4.404007e-01
4.789533e-01
4.611896e-01
4.773353e-01
4.592346e-01
4.611896e-01
4.404007e-01
4.592346e-01
4.380584e-01
4.773353e-01
4.592346e-01
4.741230e-01
4.557157e-01
4.592346e-01
4.380584e-01
4.557157e-01
4.341911e-01
4.741230e-01
4.557157e-01
4.692848e-01
4.506045e-01
4.557157e-01
4.341911e-01
4.506045e-01
4.287751e-01
4.692848e-01
4.506045e-01
4.627903e-01
4.438743e-01
4.506045e-01
4.287751e-01
4.438743e-01
4.217897e-01
4.627903e-01
4.438743e-01
4.546103e-01
4.355001e-01
4.438743e-01
4.217897e-01
4.355001e-01
4.132176e-01
4.546103e-01
4.355001e-01
4.447165e-01
4.254589e-01
4.355001e-01
4.132176e-01
4.254589e-01
4.030453e-01
4.447165e-01
4.254589e-01
4.330815e-01
4.137290e-01
4.254589e-01
4.030453e-01
4.137290e-01
3.912634e-01
4.330815e-01
4.137290e-01
4.196792e-01
4.002906e-01
4.137290e-01
3.912634e-01
4.002906e-01
3.778678e-01
4.196792e-01
4.002906e-01
4.044857e-01
3.851259e-01
4.002906e-01
3.778678e-01
3.851259e-01
3.628601e-01
4.044857e-01
3.851259e-01
3.874842e-01
3.682233e-01
3.851259e-01
3.628601e-01
3.682233e-01
3.462484e-01
3.874842e-01
3.682233e-01
3.686852e-01
3.495944e-01
3.682233e-01
3.462484e-01
3.495944e-01
3.280358e-01
3.686852e-01
3.495944e-01
3.481980e-01
3.293258e-01
3.495944e-01
3.280358e-01
3.293258e-01
3.081375e-01
3.481980e-01
3.293258e-01
3.267255e-01
3.081436e-01
3.293258e-01
3.081375e-01
3.081436e-01
2.869643e-01
3.267255e-01
3.081436e-01
3.060305e-01
2.880871e-01
3.081436e-01
2.869643e-01
2.880871e-01
2.678986e-01
3.060305e-01
2.880871e-01
2.863631e-01
2.692039e-01
2.880871e-01
2.678986e-01
2.692039e-01
2.501111e-01
2.863631e-01
2.692039e-01
2.676188e-01
2.513627e-01
2.692039e-01
2.501111e-01
2.513627e-01
2.334046e-01
2.676188e-01
2.513627e-01
2.496412e-01
2.343708e-01
2.513627e-01
2.334046e-01
2.343708e-01
2.175781e-01
2.496412e-01
2.343708e-01
2.322962e-01
2.180638e-01
2.343708e-01
2.175781e-01
2.180638e-01
2.024563e-01
2.322962e-01
2.180638e-01
2.154670e-01
2.023001e-01
2.180638e-01
2.024563e-01
2.023001e-01
1.878853e-01
2.154670e-01
2.023001e-01
1.990540e-01
1.869611e-01
2.023001e-01
1.878853e-01
1.869611e-01
1.737346e-01
1.990540e-01
1.869611e-01
1.829738e-01
1.719487e-01
1.869611e-01
1.737346e-01
1.719487e-01
1.598961e-01
1.829738e-01
1.719487e-01
1.671572e-01
1.571835e-01
1.719487e-01
1.598961e-01
1.571835e-01
1.462823e-01
1.671572e-01
1.571835e-01
1.515469e-01
1.426016e-01
1.571835e-01
1.462823e-01
1.426016e-01
1.328240e-01
1.515469e-01
1.426016e-01
1.360965e-01
1.281523e-01
1.426016e-01
1.328240e-01
1.281523e-01
1.194677e-01
1.360965e-01
1.281523e-01
1.207681e-01
1.137964e-01
1.281523e-01
1.194677e-01
1.137964e-01
1.061731e-01
1.207681e-01
1.137964e-01
1.055318e-01
9.950383e-02
1.137964e-01
1.061731e-01
9.950383e-02
9.291082e-02
1.055318e-01
9.950383e-02
9.036374e-02
8.525239e-02
9.950383e-02
9.291082e-02
8.525239e-02
7.966040e-02
9.036374e-02
8.525239e-02
7.524531e-02
7.102597e-02
8.525239e-02
7.966040e-02
7.102597e-02
6.640866e-02
7.524531e-02
7.102597e-02
6.016223e-02
5.681350e-02
7.102597e-02
6.640866e-02
5.681350e-02
5.314808e-02
6.016223e-02
5.681350e-02
4.510358e-02
4.260785e-02
5.681350e-02
5.314808e-02
4.260785e-02
3.987557e-02
4.510358e-02
4.260785e-02
3.006105e-02
2.840484e-02
4.260785e-02
3.987557e-02
2.840484e-02
2.659138e-02
3.006105e-02
2.840484e-02
1.502825e-02
1.420244e-02
2.840484e-02
2.659138e-02
1.420244e-02
1.329814e-02
1.502825e-02
1.420244e-02
0.000000e+00
0.000000e+00
1.420244e-02
1.329814e-02
0.000000e+00
0.000000e+00
</DataArray>
<DataArray type="Float32" Name="V4" format="ascii">
8.500000e-01
9.250000e-01
8.500000e-01
9.250000e-01
9.250000e-01
1.000000e+00