<?xml version="1.0"?>
<VTKFile type="UnstructuredGrid" version="0.1" byte_order="LittleEndian" compressor="vtkZLibDataCompressor">
<UnstructuredGrid>
<Piece NumberOfPoints="504" NumberOfCells="126">
<Points>
<DataArray type="Float32" NumberOfComponents="3" format="ascii">
0.000000e+00 7.358206e-01 0.000000e+00
0.000000e+00 7.836578e-01 0.000000e+00
2.773240e-02 7.358327e-01 0.000000e+00
2.770273e-02 7.836643e-01 0.000000e+00
0.000000e+00 7.836578e-01 0.000000e+00
0.000000e+00 8.400000e-01 0.000000e+00
2.770273e-02 7.836643e-01 0.000000e+00
2.769132e-02 8.400000e-01 0.000000e+00
2.773240e-02 7.358327e-01 0.000000e+00
2.770273e-02 7.836643e-01 0.000000e+00
5.546451e-02 7.358659e-01 0.000000e+00
5.540553e-02 7.836833e-01 0.000000e+00
2.770273e-02 7.836643e-01 0.000000e+00
2.769132e-02 8.400000e-01 0.000000e+00
5.540553e-02 7.836833e-01 0.000000e+00
5.538312e-02 8.400000e-01 0.000000e+00
5.546451e-02 7.358659e-01 0.000000e+00
5.540553e-02 7.836833e-01 0.000000e+00
8.319575e-02 7.359214e-01 0.000000e+00
8.310856e-02 7.837153e-01 0.000000e+00
5.540553e-02 7.836833e-01 0.000000e+00
5.538312e-02 8.400000e-01 0.000000e+00
8.310856e-02 7.837153e-01 0.000000e+00
8.307605e-02 8.400000e-01 0.000000e+00
8.319575e-02 7.359214e-01 0.000000e+00
8.310856e-02 7.837153e-01 0.000000e+00
1.109256e-01 7.359994e-01 0.000000e+00
1.108119e-01 7.837606e-01 0.000000e+00
8.310856e-02 7.837153e-01 0.000000e+00
8.307605e-02 8.400000e-01 0.000000e+00
1.108119e-01 7.837606e-01 0.000000e+00
1.107708e-01 8.400000e-01 0.000000e+00
1.109256e-01 7.359994e-01 0.000000e+00
1.108119e-01 7.837606e-01 0.000000e+00
1.386535e-01 7.361003e-01 0.000000e+00
1.385159e-01 7.838196e-01 0.000000e+00
1.108119e-01 7.837606e-01 0.000000e+00
1.107708e-01 8.400000e-01 0.000000e+00
1.385159e-01 7.838196e-01 0.000000e+00
1.384684e-01 8.400000e-01 0.000000e+00
1.386535e-01 7.361003e-01 0.000000e+00
1.385159e-01 7.838196e-01 0.000000e+00
1.663786e-01 7.362244e-01 0.000000e+00
1.662207e-01 7.838930e-01 0.000000e+00
1.385159e-01 7.838196e-01 0.000000e+00
1.384684e-01 8.400000e-01 0.000000e+00
1.662207e-01 7.838930e-01 0.000000e+00
1.661702e-01 8.400000e-01 0.000000e+00
1.663786e-01 7.362244e-01 0.000000e+00
1.662207e-01 7.838930e-01 0.000000e+00
1.940996e-01 7.363725e-01 0.000000e+00
1.939269e-01 7.839820e-01 0.000000e+00
1.662207e-01 7.838930e-01 0.000000e+00
1.661702e-01 8.400000e-01 0.000000e+00
1.939269e-01 7.839820e-01 0.000000e+00
1.938779e-01 8.400000e-01 0.000000e+00
1.940996e-01 7.363725e-01 0.000000e+00
1.939269e-01 7.839820e-01 0.000000e+00
2.218152e-01 7.365454e-01 0.000000e+00
2.216350e-01 7.840876e-01 0.000000e+00
1.939269e-01 7.839820e-01 0.000000e+00
1.938779e-01 8.400000e-01 0.000000e+00
2.216350e-01 7.840876e-01 0.000000e+00
2.215941e-01 8.400000e-01 0.000000e+00
2.218152e-01 7.365454e-01 0.000000e+00
2.216350e-01 7.840876e-01 0.000000e+00
2.495230e-01 7.367442e-01 0.000000e+00
2.493460e-01 7.842118e-01 0.000000e+00
2.216350e-01 7.840876e-01 0.000000e+00
2.215941e-01 8.400000e-01 0.000000e+00
2.493460e-01 7.842118e-01 0.000000e+00
2.493221e-01 8.400000e-01 0.000000e+00
2.495230e-01 7.367442e-01 0.000000e+00
2.493460e-01 7.842118e-01 0.000000e+00
2.772202e-01 7.369700e-01 0.000000e+00
2.770610e-01 7.843565e-01 0.000000e+00
2.493460e-01 7.842118e-01 0.000000e+00
2.493221e-01 8.400000e-01 0.000000e+00
2.770610e-01 7.843565e-01 0.000000e+00
2.770666e-01 8.400000e-01 0.000000e+00
2.772202e-01 7.369700e-01 0.000000e+00
2.770610e-01 7.843565e-01 0.000000e+00
3.049027e-01 7.372244e-01 0.000000e+00
3.047816e-01 7.845247e-01 0.000000e+00
2.770610e-01 7.843565e-01 0.000000e+00
2.770666e-01 8.400000e-01 0.000000e+00
3.047816e-01 7.845247e-01 0.000000e+00
3.048336e-01 8.400000e-01 0.000000e+00
3.049027e-01 7.372244e-01 0.000000e+00
3.047816e-01 7.845247e-01 0.000000e+00
3.325650e-01 7.375090e-01 0.000000e+00
3.325098e-01 7.847197e-01 0.000000e+00
3.047816e-01 7.845247e-01 0.000000e+00
3.048336e-01 8.400000e-01 0.000000e+00
3.325098e-01 7.847197e-01 0.000000e+00
3.326312e-01 8.400000e-01 0.000000e+00
3.325650e-01 7.375090e-01 0.000000e+00
3.325098e-01 7.847197e-01 0.000000e+00
3.601995e-01 7.378252e-01 0.000000e+00
3.602480e-01 7.849453e-01 0.000000e+00
3.325098e-01 7.847197e-01 0.000000e+00
3.326312e-01 8.400000e-01 0.000000e+00
3.602480e-01 7.849453e-01 0.000000e+00
3.604700e-01 8.400000e-01 0.000000e+00
3.601995e-01 7.378252e-01 0.000000e+00
3.602480e-01 7.849453e-01 0.000000e+00
3.877957e-01 7.381737e-01 0.000000e+00
3.879991e-01 7.852057e-01 0.000000e+00
3.602480e-01 7.849453e-01 0.000000e+00
3.604700e-01 8.400000e-01 0.000000e+00
3.879991e-01 7.852057e-01 0.000000e+00
3.883633e-01 8.400000e-01 0.000000e+00
3.877957e-01 7.381737e-01 0.000000e+00
3.879991e-01 7.852057e-01 0.000000e+00
4.153397e-01 7.385542e-01 0.000000e+00
4.157660e-01 7.855053e-01 0.000000e+00
3.879991e-01 7.852057e-01 0.000000e+00
3.883633e-01 8.400000e-01 0.000000e+00
4.157660e-01 7.855053e-01 0.000000e+00
4.163280e-01 8.400000e-01 0.000000e+00
4.153397e-01 7.385542e-01 0.000000e+00
4.157660e-01 7.855053e-01 0.000000e+00
4.428126e-01 7.389632e-01 0.000000e+00
4.435515e-01 7.858471e-01 0.000000e+00
4.157660e-01 7.855053e-01 0.000000e+00
4.163280e-01 8.400000e-01 0.000000e+00
4.435515e-01 7.858471e-01 0.000000e+00
4.443849e-01 8.400000e-01 0.000000e+00
4.428126e-01 7.389632e-01 0.000000e+00
4.435515e-01 7.858471e-01 0.000000e+00
4.701898e-01 7.393924e-01 0.000000e+00
4.713561e-01 7.862315e-01 0.000000e+00
4.435515e-01 7.858471e-01 0.000000e+00
4.443849e-01 8.400000e-01 0.000000e+00
4.713561e-01 7.862315e-01 0.000000e+00
4.725582e-01 8.400000e-01 0.000000e+00
4.701898e-01 7.393924e-01 0.000000e+00
4.713561e-01 7.862315e-01 0.000000e+00
4.974389e-01 7.398242e-01 0.000000e+00
4.991763e-01 7.866523e-01 0.000000e+00
4.713561e-01 7.862315e-01 0.000000e+00
4.725582e-01 8.400000e-01 0.000000e+00
4.991763e-01 7.866523e-01 0.000000e+00
5.008751e-01 8.400000e-01 0.000000e+00
4.974389e-01 7.398242e-01 0.000000e+00
4.991763e-01 7.866523e-01 0.000000e+00
5.245191e-01 7.402255e-01 0.000000e+00
5.269987e-01 7.870907e-01 0.000000e+00
4.991763e-01 7.866523e-01 0.000000e+00
5.008751e-01 8.400000e-01 0.000000e+00
5.269987e-01 7.870907e-01 0.000000e+00
5.293621e-01 8.400000e-01 0.000000e+00
5.245191e-01 7.402255e-01 0.000000e+00
5.269987e-01 7.870907e-01 0.000000e+00
5.513798e-01 7.405365e-01 0.000000e+00
5.547901e-01 7.875016e-01 0.000000e+00
5.269987e-01 7.870907e-01 0.000000e+00
5.293621e-01 8.400000e-01 0.000000e+00
5.547901e-01 7.875016e-01 0.000000e+00
5.580390e-01 8.400000e-01 0.000000e+00
5.513798e-01 7.405365e-01 0.000000e+00
5.547901e-01 7.875016e-01 0.000000e+00
5.779597e-01 7.406544e-01 0.000000e+00
5.824804e-01 7.877896e-01 0.000000e+00
5.547901e-01 7.875016e-01 0.000000e+00
5.580390e-01 8.400000e-01 0.000000e+00
5.824804e-01 7.877896e-01 0.000000e+00
5.869054e-01 8.400000e-01 0.000000e+00
5.779597e-01 7.406544e-01 0.000000e+00
5.824804e-01 7.877896e-01 0.000000e+00
6.041776e-01 7.403904e-01 0.000000e+00
6.099444e-01 7.877409e-01 0.000000e+00
5.824804e-01 7.877896e-01 0.000000e+00
5.869054e-01 8.400000e-01 0.000000e+00
6.099444e-01 7.877409e-01 0.000000e+00
6.159144e-01 8.400000e-01 0.000000e+00
6.041776e-01 7.403904e-01 0.000000e+00
6.099444e-01 7.877409e-01 0.000000e+00
6.300219e-01 7.395135e-01 0.000000e+00
6.371566e-01 7.870620e-01 0.000000e+00
6.099444e-01 7.877409e-01 0.000000e+00
6.159144e-01 8.400000e-01 0.000000e+00
6.371566e-01 7.870620e-01 0.000000e+00
6.446653e-01 8.397247e-01 0.000000e+00
6.300219e-01 7.395135e-01 0.000000e+00
6.371566e-01 7.870620e-01 0.000000e+00
6.554624e-01 7.375845e-01 0.000000e+00
6.640621e-01 7.850366e-01 0.000000e+00
6.371566e-01 7.870620e-01 0.000000e+00
6.446653e-01 8.397247e-01 0.000000e+00
6.640621e-01 7.850366e-01 0.000000e+00
6.731959e-01 8.370511e-01 0.000000e+00
6.554624e-01 7.375845e-01 0.000000e+00
6.640621e-01 7.850366e-01 0.000000e+00
6.804713e-01 7.344571e-01 0.000000e+00
6.906892e-01 7.815976e-01 0.000000e+00
6.640621e-01 7.850366e-01 0.000000e+00
6.731959e-01 8.370511e-01 0.000000e+00
6.906892e-01 7.815976e-01 0.000000e+00
7.017732e-01 8.326678e-01 0.000000e+00
6.804713e-01 7.344571e-01 0.000000e+00
6.906892e-01 7.815976e-01 0.000000e+00
7.050972e-01 7.299919e-01 0.000000e+00
7.171019e-01 7.766297e-01 0.000000e+00
6.906892e-01 7.815976e-01 0.000000e+00
7.017732e-01 8.326678e-01 0.000000e+00
7.171019e-01 7.766297e-01 0.000000e+00
7.302129e-01 8.267092e-01 0.000000e+00
7.050972e-01 7.299919e-01 0.000000e+00
7.171019e-01 7.766297e-01 0.000000e+00
7.293476e-01 7.242060e-01 0.000000e+00
7.432493e-01 7.701902e-01 0.000000e+00
7.171019e-01 7.766297e-01 0.000000e+00
7.302129e-01 8.267092e-01 0.000000e+00
7.432493e-01 7.701902e-01 0.000000e+00
7.584062e-01 8.192542e-01 0.000000e+00
7.293476e-01 7.242060e-01 0.000000e+00
7.432493e-01 7.701902e-01 0.000000e+00
7.532170e-01 7.171344e-01 0.000000e+00
7.690550e-01 7.623365e-01 0.000000e+00
7.432493e-01 7.701902e-01 0.000000e+00
7.584062e-01 8.192542e-01 0.000000e+00
7.690550e-01 7.623365e-01 0.000000e+00
7.862480e-01 8.103534e-01 0.000000e+00
7.532170e-01 7.171344e-01 0.000000e+00
7.690550e-01 7.623365e-01 0.000000e+00
7.766875e-01 7.088252e-01 0.000000e+00
7.944499e-01 7.531338e-01 0.000000e+00
7.690550e-01 7.623365e-01 0.000000e+00
7.862480e-01 8.103534e-01 0.000000e+00
7.944499e-01 7.531338e-01 0.000000e+00
8.136476e-01 8.000637e-01 0.000000e+00
7.766875e-01 7.088252e-01 0.000000e+00
7.944499e-01 7.531338e-01 0.000000e+00
7.997349e-01 6.993286e-01 0.000000e+00
8.193763e-01 7.426487e-01 0.000000e+00
7.944499e-01 7.531338e-01 0.000000e+00
8.136476e-01 8.000637e-01 0.000000e+00
8.193763e-01 7.426487e-01 0.000000e+00
8.405290e-01 7.884481e-01 0.000000e+00
7.997349e-01 6.993286e-01 0.000000e+00
8.193763e-01 7.426487e-01 0.000000e+00
8.223323e-01 6.886953e-01 0.000000e+00
8.437863e-01 7.309477e-01 0.000000e+00
8.193763e-01 7.426487e-01 0.000000e+00
8.405290e-01 7.884481e-01 0.000000e+00
8.437863e-01 7.309477e-01 0.000000e+00
8.668301e-01 7.755736e-01 0.000000e+00
8.223323e-01 6.886953e-01 0.000000e+00
[...]
<PointData>
<DataArray type="Float32" Name="V1" format="ascii">
1.492448e+01
5.300730e+00
1.493084e+01
5.307086e+00
5.599524e+00
5.680311e-01
5.603192e+00
5.716992e-01
1.493374e+01
5.303826e+00
1.494984e+01
5.319922e+00
5.604897e+00
5.706661e-01
5.614125e+00
5.798938e-01
1.495632e+01
5.313600e+00
1.498323e+01
5.340518e+00
5.617637e+00
5.779157e-01
5.633230e+00
5.935083e-01
1.499269e+01
5.331093e+00
1.503033e+01
5.368734e+00
5.638385e+00
5.904288e-01
5.660417e+00
6.124610e-01
1.504260e+01
5.356381e+00
1.509080e+01
5.404585e+00
5.667219e+00
6.082890e-01
5.695820e+00
6.368898e-01
1.510559e+01
5.389596e+00
1.516412e+01
5.448125e+00
5.704249e+00
6.316287e-01
5.739629e+00
6.670086e-01
1.518098e+01
5.430933e+00
1.524947e+01
5.499430e+00
5.749642e+00
6.606588e-01
5.792107e+00
7.031235e-01
1.526774e+01
5.480670e+00
1.534569e+01
5.558611e+00
5.803629e+00
6.956871e-01
5.853626e+00
7.456840e-01
1.536440e+01
5.539205e+00
1.545103e+01
5.625835e+00
5.866528e+00
7.371762e-01
5.924700e+00
7.953482e-01
1.546881e+01
5.607111e+00
1.556306e+01
5.701357e+00
5.938780e+00
7.857996e-01
6.006053e+00
8.530723e-01
1.557794e+01
5.685208e+00
1.567831e+01
5.785574e+00
6.020994e+00
8.425451e-01
6.098699e+00
9.202491e-01
1.568754e+01
5.774673e+00
1.579197e+01
5.879109e+00
6.114017e+00
9.088580e-01
6.204065e+00
9.989067e-01
1.579174e+01
5.877182e+00
1.589748e+01
5.982924e+00
6.219020e+00
9.868512e-01
6.324166e+00
1.091997e+00
1.588260e+01
5.995113e+00
1.598598e+01
6.098502e+00
6.337620e+00
1.079634e+00
6.461825e+00
1.203838e+00
1.594954e+01
6.131776e+00
1.604584e+01
6.228072e+00
6.472013e+00
1.191803e+00
6.620991e+00
1.340781e+00
1.597888e+01
6.291683e+00
1.606211e+01
6.374916e+00
6.625104e+00
1.330238e+00
6.807136e+00
1.512270e+00
1.595347e+01
6.480780e+00
1.601643e+01
6.543738e+00
6.800583e+00
1.505409e+00
7.027750e+00
1.732577e+00
1.585295e+01
6.706522e+00
1.588753e+01
6.741105e+00
7.002770e+00
1.733640e+00
7.292922e+00
2.023791e+00
1.565503e+01
6.977616e+00
1.565342e+01
6.976007e+00
7.235935e+00
2.041190e+00
7.615843e+00
2.421099e+00
1.533911e+01
7.303178e+00
1.529660e+01
7.260670e+00
7.502240e+00
2.471858e+00
8.012823e+00
2.982441e+00
1.489290e+01
7.692930e+00
1.481257e+01
7.612594e+00
7.795525e+00
3.102806e+00
8.499039e+00
3.806320e+00
1.432930e+01
8.152564e+00
1.422698e+01
8.050246e+00
8.076787e+00
4.078022e+00
9.071110e+00
5.072345e+00
1.364370e+01
8.745555e+00
1.357999e+01
8.681846e+00
8.143896e+00
5.858931e+00
9.381132e+00
7.096167e+00
1.304497e+01
9.331261e+00
1.297652e+01
9.262809e+00
8.725803e+00
7.604269e+00
9.392091e+00
8.270557e+00
1.260819e+01
9.658358e+00
1.261079e+01
9.660957e+00
9.291158e+00
8.279383e+00
9.742238e+00
8.730464e+00
1.235328e+01
9.927236e+00
1.240993e+01
9.983886e+00
9.649899e+00
8.773803e+00
1.001933e+01
9.143232e+00
1.225790e+01
1.014714e+01
1.237057e+01
1.025981e+01
9.951560e+00
9.181658e+00
1.027320e+01
9.503299e+00
1.228372e+01
1.035640e+01
1.244236e+01
1.051505e+01
1.022802e+01
9.530545e+00
1.051388e+01
9.816400e+00
1.239829e+01
1.056506e+01
1.259058e+01
1.075735e+01
1.049086e+01
9.830142e+00
1.074740e+01
1.008668e+01
1.257553e+01
1.077452e+01
1.279074e+01
1.098973e+01
1.074321e+01
1.008810e+01
1.097483e+01
1.031972e+01
1.279627e+01
1.098316e+01
1.302589e+01
1.121277e+01
1.098557e+01
1.031111e+01
1.119573e+01
1.052127e+01
1.304635e+01
1.118887e+01
1.328381e+01
1.142633e+01
1.121770e+01
1.050507e+01
1.140922e+01
1.069658e+01
1.331516e+01
1.138983e+01
1.355545e+01
1.163013e+01
1.143926e+01
1.067496e+01
1.161446e+01
1.085016e+01
1.359467e+01
1.158462e+01
1.383402e+01
1.182396e+01
1.165004e+01
1.082491e+01
1.181087e+01
1.098574e+01
1.387876e+01
1.177222e+01
1.411430e+01
1.200776e+01
1.184999e+01
1.095824e+01
1.199807e+01
1.110632e+01
1.416273e+01
1.195197e+01
1.439237e+01
1.218160e+01
1.203921e+01
1.107763e+01
1.217589e+01
1.121431e+01
1.444302e+01
1.212346e+01
1.466522e+01
1.234566e+01
1.221790e+01
1.118521e+01
1.234433e+01
1.131164e+01
1.471696e+01
1.228650e+01
1.493063e+01
1.250018e+01
1.238636e+01
1.128269e+01
1.250350e+01
1.139983e+01
1.498254e+01
1.244103e+01
1.518696e+01
1.264546e+01
1.254490e+01
1.137147e+01
1.265356e+01
1.148013e+01
1.523833e+01
1.258712e+01
1.543304e+01
1.278182e+01
1.269388e+01
1.145263e+01
1.279478e+01
1.155353e+01
1.548333e+01
1.272489e+01
1.566806e+01
1.290961e+01
1.283369e+01
1.152710e+01
1.292741e+01
1.162082e+01
1.571685e+01
1.285453e+01
1.589149e+01
1.302918e+01
1.296469e+01
1.159559e+01
1.305176e+01
1.168266e+01
1.593848e+01
1.297628e+01
1.610305e+01
1.314085e+01
1.308726e+01
1.165872e+01
1.316813e+01
1.173959e+01
1.614801e+01
1.309037e+01
1.630261e+01
1.324497e+01
1.320175e+01
1.171698e+01
1.327681e+01
1.179204e+01
1.634537e+01
1.319707e+01
1.649015e+01
1.334185e+01
1.330852e+01
1.177079e+01
1.337812e+01
1.184040e+01
1.653061e+01
1.329662e+01
1.666578e+01
1.343179e+01
1.340788e+01
1.182050e+01
1.347233e+01
1.188496e+01
1.670387e+01
1.338929e+01
1.682966e+01
1.351508e+01
1.350015e+01
1.186640e+01
1.355973e+01
1.192598e+01
1.686534e+01
1.347534e+01
1.698198e+01
1.359198e+01
1.358562e+01
1.190873e+01
1.364057e+01
1.196368e+01
1.701525e+01
1.355499e+01
1.712300e+01
1.366274e+01
1.366457e+01
1.194772e+01
1.371510e+01
1.199825e+01
1.715385e+01
1.362849e+01
1.725296e+01
1.372760e+01
1.373725e+01
1.198355e+01
1.378356e+01
1.202985e+01
1.728141e+01
1.369604e+01
1.737212e+01
1.378675e+01
1.380390e+01
1.201637e+01
1.384615e+01
1.205862e+01
1.739821e+01
1.375786e+01
1.748075e+01
1.384040e+01
1.386473e+01
1.204633e+01
1.390308e+01
1.208468e+01
1.750449e+01
1.381413e+01
1.757909e+01
1.388873e+01
1.391993e+01
1.207355e+01
1.395452e+01
1.210814e+01
1.760053e+01
1.386503e+01
1.766739e+01
1.393188e+01
1.396970e+01
1.209812e+01
1.400065e+01
1.212907e+01
1.768656e+01
1.391070e+01
1.774586e+01
1.397000e+01
1.401418e+01
1.212015e+01
1.404160e+01
1.214757e+01
1.776280e+01
1.395131e+01
1.781472e+01
1.400323e+01
1.405353e+01
1.213970e+01
1.407751e+01
1.216369e+01
1.782947e+01
1.398697e+01
1.787415e+01
1.403165e+01
1.408787e+01
1.215686e+01
1.410850e+01
1.217749e+01
1.788673e+01
1.401779e+01
1.792432e+01
1.405538e+01
1.411732e+01
1.217168e+01
1.413466e+01
1.218902e+01
1.793475e+01
1.404388e+01
1.796535e+01
1.407448e+01
1.414197e+01
1.218420e+01
1.415608e+01
1.219831e+01
1.797367e+01
1.406532e+01
1.799737e+01
1.408903e+01
1.416190e+01
1.219448e+01
1.417282e+01
1.220541e+01
1.800360e+01
1.408218e+01
1.802048e+01
1.409906e+01
1.417717e+01
1.220255e+01
1.418495e+01
1.221033e+01
1.802462e+01
1.409450e+01
1.803472e+01
1.410461e+01
1.418785e+01
1.220842e+01
1.419250e+01
1.221308e+01
1.803679e+01
1.410233e+01
1.804016e+01
1.410570e+01
1.419395e+01
1.221213e+01
1.419550e+01
1.221368e+01
</DataArray>
<DataArray type="Float32" Name="V2" format="ascii">
7.358206e-01
7.836578e-01
7.362954e-01
7.841113e-01
7.836578e-01
8.400000e-01
7.841113e-01
8.404293e-01
7.362954e-01
7.841113e-01
7.377158e-01
7.854709e-01
7.841113e-01
8.404293e-01
7.854709e-01
8.417164e-01
7.377158e-01
7.854709e-01
7.400808e-01
7.877346e-01
7.854709e-01
8.417164e-01
7.877346e-01
8.438595e-01
7.400808e-01
7.877346e-01
7.433867e-01
7.908992e-01
7.877346e-01
8.438595e-01
7.908992e-01
8.468551e-01
7.433867e-01
7.908992e-01
7.476282e-01
7.949601e-01
7.908992e-01
8.468551e-01
7.949601e-01
8.506986e-01
7.476282e-01
7.949601e-01
7.527988e-01
7.999115e-01
7.949601e-01
8.506986e-01
7.999115e-01
8.553843e-01
7.527988e-01
7.999115e-01
7.588904e-01
8.057466e-01
7.999115e-01
8.553843e-01
8.057466e-01
8.609051e-01
7.588904e-01
8.057466e-01
7.658934e-01
8.124572e-01
8.057466e-01
8.609051e-01
8.124572e-01
8.672529e-01
7.658934e-01
8.124572e-01
7.737965e-01
8.200346e-01
8.124572e-01
8.672529e-01
8.200346e-01
8.744188e-01
7.737965e-01
8.200346e-01
7.825870e-01
8.284690e-01
8.200346e-01
8.744188e-01
8.284690e-01
8.823932e-01
7.825870e-01
8.284690e-01
7.922501e-01
8.377497e-01
8.284690e-01
8.823932e-01
8.377497e-01
8.911656e-01
7.922501e-01
8.377497e-01
8.027688e-01
8.478658e-01
8.377497e-01
8.911656e-01
8.478658e-01
9.007259e-01
8.027688e-01
8.478658e-01
8.141234e-01
8.588053e-01
8.478658e-01
9.007259e-01
8.588053e-01
9.110639e-01
8.141234e-01
8.588053e-01
8.262903e-01
8.705555e-01
8.588053e-01
9.110639e-01
8.705555e-01
9.221699e-01
8.262903e-01
8.705555e-01
8.392413e-01
8.831027e-01
8.705555e-01
9.221699e-01
8.831027e-01
9.340357e-01
8.392413e-01
8.831027e-01
8.529409e-01
8.964303e-01
8.831027e-01
9.340357e-01
8.964303e-01
9.466546e-01
8.529409e-01
8.964303e-01
8.673435e-01
9.105173e-01
8.964303e-01
9.466546e-01
9.105173e-01
9.600220e-01
8.673435e-01
9.105173e-01
8.823892e-01
9.253338e-01
9.105173e-01
9.600220e-01
9.253338e-01
9.741354e-01
8.823892e-01
9.253338e-01
8.979970e-01
9.408322e-01
9.253338e-01
9.741354e-01
9.408322e-01
9.889929e-01
8.979970e-01
9.408322e-01
9.140548e-01
9.569315e-01
9.408322e-01
9.889929e-01
9.569315e-01
1.004590e+00
9.140548e-01
9.569315e-01
9.304053e-01
9.734860e-01
9.569315e-01
1.004590e+00
9.734860e-01
1.020914e+00
9.304053e-01
9.734860e-01
9.468078e-01
9.902186e-01
9.734860e-01
1.020914e+00
9.902186e-01
1.037924e+00
9.468078e-01
9.902186e-01
9.630265e-01
1.006839e+00
9.902186e-01
1.037924e+00
1.006839e+00
1.055151e+00
9.630265e-01
1.006839e+00
9.786561e-01
1.022707e+00
1.006839e+00
1.055151e+00
1.022707e+00
1.070829e+00
9.786561e-01
1.022707e+00
9.935544e-01
1.037794e+00
1.022707e+00
1.070829e+00
1.037794e+00
1.085730e+00
9.935544e-01
1.037794e+00
1.007641e+00
1.052066e+00
1.037794e+00
1.085730e+00
1.052066e+00
1.099903e+00
1.007641e+00
1.052066e+00
1.020948e+00
1.065567e+00
1.052066e+00
1.099903e+00
1.065567e+00
1.113377e+00
1.020948e+00
1.065567e+00
1.033515e+00
1.078323e+00
1.065567e+00
1.113377e+00
1.078323e+00
1.126157e+00
1.033515e+00
1.078323e+00
1.045387e+00
1.090362e+00
1.078323e+00
1.126157e+00
1.090362e+00
1.138252e+00
1.045387e+00
1.090362e+00
1.056602e+00
1.101717e+00
1.090362e+00
1.138252e+00
1.101717e+00
1.149678e+00
1.056602e+00
1.101717e+00
1.067197e+00
1.112424e+00
1.101717e+00
1.149678e+00
1.112424e+00
1.160460e+00
1.067197e+00
1.112424e+00
1.077205e+00
1.122516e+00
1.112424e+00
1.160460e+00
1.122516e+00
1.170625e+00
1.077205e+00
1.122516e+00
1.086658e+00
1.132027e+00
1.122516e+00
1.170625e+00
1.132027e+00
1.180202e+00
1.086658e+00
1.132027e+00
1.095584e+00
1.140991e+00
1.132027e+00
1.180202e+00
1.140991e+00
1.189222e+00
1.095584e+00
1.140991e+00
1.104012e+00
1.149436e+00
1.140991e+00
1.189222e+00
1.149436e+00
1.197715e+00
1.104012e+00
1.149436e+00
1.111967e+00
1.157393e+00
1.149436e+00
1.197715e+00
1.157393e+00
1.205709e+00
1.111967e+00
1.157393e+00
1.119472e+00
1.164888e+00
1.157393e+00
1.205709e+00
1.164888e+00
1.213231e+00
1.119472e+00
1.164888e+00
1.126550e+00
1.171945e+00
1.164888e+00
1.213231e+00
1.171945e+00
1.220307e+00
1.126550e+00
1.171945e+00
1.133220e+00
1.178587e+00
1.171945e+00
1.220307e+00
1.178587e+00
1.226961e+00
1.133220e+00
1.178587e+00
1.139503e+00
1.184836e+00
1.178587e+00
1.226961e+00
1.184836e+00
1.233215e+00
1.139503e+00
1.184836e+00
1.145416e+00
1.190709e+00
1.184836e+00
1.233215e+00
1.190709e+00
1.239089e+00
1.145416e+00
1.190709e+00
1.150974e+00
1.196226e+00
1.190709e+00
1.239089e+00
1.196226e+00
1.244600e+00
1.150974e+00
1.196226e+00
1.156192e+00
1.201400e+00
1.196226e+00
1.244600e+00
1.201400e+00
1.249767e+00
1.156192e+00
1.201400e+00
1.161084e+00
1.206248e+00
1.201400e+00
1.249767e+00
1.206248e+00
1.254603e+00
1.161084e+00
1.206248e+00
1.165663e+00
1.210782e+00
1.206248e+00
1.254603e+00
1.210782e+00
1.259124e+00
1.165663e+00
1.210782e+00
1.169939e+00
1.215015e+00
1.210782e+00
1.259124e+00
1.215015e+00
1.263342e+00
1.169939e+00
1.215015e+00
1.173923e+00
1.218956e+00
1.215015e+00
1.263342e+00
1.218956e+00
1.267267e+00
1.173923e+00
1.218956e+00
1.177625e+00
1.222616e+00
1.218956e+00
1.267267e+00
1.222616e+00
1.270910e+00
1.177625e+00
1.222616e+00
1.181052e+00
1.226004e+00
1.222616e+00
1.270910e+00
1.226004e+00
1.274281e+00
1.181052e+00
1.226004e+00
1.184213e+00
1.229128e+00
1.226004e+00
1.274281e+00
1.229128e+00
1.277388e+00
1.184213e+00
1.229128e+00
1.187114e+00
1.231994e+00
1.229128e+00
1.277388e+00
1.231994e+00
1.280238e+00
1.187114e+00
1.231994e+00
1.189762e+00
1.234609e+00
1.231994e+00
1.280238e+00
1.234609e+00
1.282837e+00
1.189762e+00
1.234609e+00
1.192163e+00
1.236979e+00
1.234609e+00
1.282837e+00
1.236979e+00
1.285193e+00
1.192163e+00
1.236979e+00
1.194321e+00
1.239110e+00
1.236979e+00
1.285193e+00
1.239110e+00
1.287309e+00
1.194321e+00
1.239110e+00
1.196240e+00
1.241004e+00
1.239110e+00
1.287309e+00
1.241004e+00
1.289191e+00
1.196240e+00
1.241004e+00
1.197925e+00
1.242667e+00
1.241004e+00
1.289191e+00
1.242667e+00
1.290843e+00
1.197925e+00
1.242667e+00
1.199379e+00
1.244102e+00
1.242667e+00
1.290843e+00
1.244102e+00
1.292267e+00
1.199379e+00
1.244102e+00
1.200604e+00
1.245312e+00
1.244102e+00
1.292267e+00
1.245312e+00
1.293468e+00
1.200604e+00
1.245312e+00
1.201604e+00
1.246298e+00
1.245312e+00
1.293468e+00
1.246298e+00
1.294447e+00
1.201604e+00
1.246298e+00
1.202379e+00
1.247063e+00
1.246298e+00
1.294447e+00
1.247063e+00
1.295206e+00
1.202379e+00
1.247063e+00
1.202932e+00
1.247608e+00
1.247063e+00
1.295206e+00
1.247608e+00
1.295748e+00
1.202932e+00
1.247608e+00
1.203263e+00
1.247935e+00
1.247608e+00
1.295748e+00
1.247935e+00
1.296072e+00
1.203263e+00
1.247935e+00
1.203374e+00
1.248044e+00
1.247935e+00
1.296072e+00
1.248044e+00
1.296180e+00
</DataArray>
<DataArray type="Float32" Name="V3" format="ascii">
0.000000e+00
0.000000e+00
9.378965e-03
8.156824e-03
0.000000e+00
0.000000e+00
8.156824e-03
6.740927e-03
9.378965e-03
8.156824e-03
1.871567e-02
1.627327e-02
8.156824e-03
6.740927e-03
1.627327e-02
1.344373e-02
1.871567e-02
1.627327e-02
2.796765e-02
2.430905e-02
1.627327e-02
1.344373e-02
2.430905e-02
2.007047e-02
2.796765e-02
2.430905e-02
3.709256e-02
3.222393e-02
2.430905e-02
2.007047e-02
3.222393e-02
2.658339e-02
3.709256e-02
3.222393e-02
4.604805e-02
3.997786e-02
3.222393e-02
2.658339e-02
3.997786e-02
3.294509e-02
4.604805e-02
3.997786e-02
5.479172e-02
4.753097e-02
3.997786e-02
3.294509e-02
4.753097e-02
3.911869e-02
5.479172e-02
4.753097e-02
6.328109e-02
5.484366e-02
4.753097e-02
3.911869e-02
5.484366e-02
4.506799e-02
6.328109e-02
5.484366e-02
7.147347e-02
6.187662e-02
5.484366e-02
4.506799e-02
6.187662e-02
5.075767e-02
7.147347e-02
6.187662e-02
7.932591e-02
6.859087e-02
6.187662e-02
5.075767e-02
6.859087e-02
5.615352e-02
7.932591e-02
6.859087e-02
8.679497e-02
7.494778e-02
6.859087e-02
5.615352e-02
7.494778e-02
6.122273e-02
8.679497e-02
7.494778e-02
9.383653e-02
8.090915e-02
7.494778e-02
6.122273e-02
8.090915e-02
6.593423e-02
9.383653e-02
8.090915e-02
1.004055e-01
8.643714e-02
8.090915e-02
6.593423e-02
8.643714e-02
7.025902e-02
1.004055e-01
8.643714e-02
1.064555e-01
9.149434e-02
8.643714e-02
7.025902e-02
9.149434e-02
7.417057e-02
1.064555e-01
9.149434e-02
1.119385e-01
9.604368e-02
9.149434e-02
7.417057e-02
9.604368e-02
7.764520e-02
1.119385e-01
9.604368e-02
1.168047e-01
1.000484e-01
9.604368e-02
7.764520e-02
1.000484e-01
8.066239e-02
1.168047e-01
1.000484e-01
1.210023e-01
1.034718e-01
1.000484e-01
8.066239e-02
1.034718e-01
8.320490e-02
1.210023e-01
1.034718e-01
1.244782e-01
1.062770e-01
1.034718e-01
8.320490e-02
1.062770e-01
8.525844e-02
1.244782e-01
1.062770e-01
1.271793e-01
1.084267e-01
1.062770e-01
8.525844e-02
1.084267e-01
8.681050e-02
1.271793e-01
1.084267e-01
1.290560e-01
1.098821e-01
1.084267e-01
8.681050e-02
1.098821e-01
8.784743e-02
1.290560e-01
1.098821e-01
1.300691e-01
1.106029e-01
1.098821e-01
8.784743e-02
1.106029e-01
8.834854e-02
1.300691e-01
1.106029e-01
1.302006e-01
1.105480e-01
1.106029e-01
8.834854e-02
1.105480e-01
8.827498e-02
1.302006e-01
1.105480e-01
1.294736e-01
1.097042e-01
1.105480e-01
8.827498e-02
1.097042e-01
8.754858e-02
1.294736e-01
1.097042e-01
1.280144e-01
1.082105e-01
1.097042e-01
8.754858e-02
1.082105e-01
8.594606e-02
1.280144e-01
1.082105e-01
1.260723e-01
1.064470e-01
1.082105e-01
8.594606e-02
1.064470e-01
8.469288e-02
1.260723e-01
1.064470e-01
1.237658e-01
1.045441e-01
1.064470e-01
8.469288e-02
1.045441e-01
8.373171e-02
1.237658e-01
1.045441e-01
1.212835e-01
1.026928e-01
1.045441e-01
8.373171e-02
1.026928e-01
8.290572e-02
1.212835e-01
1.026928e-01
1.186919e-01
1.008900e-01
1.026928e-01
8.290572e-02
1.008900e-01
8.214919e-02
1.186919e-01
1.008900e-01
1.160326e-01
9.910987e-02
1.008900e-01
8.214919e-02
9.910987e-02
8.141580e-02
1.160326e-01
9.910987e-02
1.133260e-01
9.732567e-02
9.910987e-02
8.141580e-02
9.732567e-02
8.066687e-02
1.133260e-01
9.732567e-02
1.105829e-01
9.551593e-02
9.732567e-02
8.066687e-02
9.551593e-02
7.987041e-02
1.105829e-01
9.551593e-02
1.078080e-01
9.366406e-02
9.551593e-02
7.987041e-02
9.366406e-02
7.900092e-02
1.078080e-01
9.366406e-02
1.050026e-01
9.175738e-02
9.366406e-02
7.900092e-02
9.175738e-02
7.803894e-02
1.050026e-01
9.175738e-02
1.021663e-01
8.978635e-02
9.175738e-02
7.803894e-02
8.978635e-02
7.697028e-02
1.021663e-01
8.978635e-02
9.929744e-02
8.774389e-02
8.978635e-02
7.697028e-02
8.774389e-02
7.578520e-02
9.929744e-02
8.774389e-02
9.639389e-02
8.562501e-02
8.774389e-02
7.578520e-02
8.562501e-02
7.447757e-02
9.639389e-02
8.562501e-02
9.345345e-02
8.342637e-02
8.562501e-02
7.447757e-02
8.342637e-02
7.304419e-02
9.345345e-02
8.342637e-02
9.047405e-02
8.114605e-02
8.342637e-02
7.304419e-02
8.114605e-02
7.148412e-02
9.047405e-02
8.114605e-02
8.745387e-02
7.878328e-02
8.114605e-02
7.148412e-02
7.878328e-02
6.979820e-02
8.745387e-02
7.878328e-02
8.439147e-02
7.633824e-02
7.878328e-02
6.979820e-02
7.633824e-02
6.798865e-02
8.439147e-02
7.633824e-02
8.128581e-02
7.381186e-02
7.633824e-02
6.798865e-02
7.381186e-02
6.605869e-02
8.128581e-02
7.381186e-02
7.813623e-02
7.120573e-02
7.381186e-02
6.605869e-02
7.120573e-02
6.401230e-02
7.813623e-02
7.120573e-02
7.494247e-02
6.852192e-02
7.120573e-02
6.401230e-02
6.852192e-02
6.185403e-02
7.494247e-02
6.852192e-02
7.170468e-02
6.576289e-02
6.852192e-02
6.185403e-02
6.576289e-02
5.958881e-02
7.170468e-02
6.576289e-02
6.842330e-02
6.293145e-02
6.576289e-02
5.958881e-02
6.293145e-02
5.722181e-02
6.842330e-02
6.293145e-02
6.509912e-02
6.003063e-02
6.293145e-02
5.722181e-02
6.003063e-02
5.475839e-02
6.509912e-02
6.003063e-02
6.173321e-02
5.706367e-02
6.003063e-02
5.475839e-02
5.706367e-02
5.220401e-02
6.173321e-02
5.706367e-02
5.832687e-02
5.403395e-02
5.706367e-02
5.220401e-02
5.403395e-02
4.956414e-02
5.832687e-02
5.403395e-02
5.488164e-02
5.094496e-02
5.403395e-02
4.956414e-02
5.094496e-02
4.684425e-02
5.488164e-02
5.094496e-02
5.139925e-02
4.780029e-02
5.094496e-02
4.684425e-02
4.780029e-02
4.404981e-02
5.139925e-02
4.780029e-02
4.788159e-02
4.460356e-02
4.780029e-02
4.404981e-02
4.460356e-02
4.118621e-02
4.788159e-02
4.460356e-02
4.433071e-02
4.135846e-02
4.460356e-02
4.118621e-02
4.135846e-02
3.825879e-02
4.433071e-02
4.135846e-02
4.074877e-02
3.806869e-02
4.135846e-02
3.825879e-02
3.806869e-02
3.527280e-02
4.074877e-02
3.806869e-02
3.713805e-02
3.473798e-02
3.806869e-02
3.527280e-02
3.473798e-02
3.223345e-02
3.713805e-02
3.473798e-02
3.350093e-02
3.137006e-02
3.473798e-02
3.223345e-02
3.137006e-02
2.914586e-02
3.350093e-02
3.137006e-02
2.983985e-02
2.796866e-02
3.137006e-02
2.914586e-02
2.796866e-02
2.601506e-02
2.983985e-02
2.796866e-02
2.615732e-02
2.453753e-02
2.796866e-02
2.601506e-02
2.453753e-02
2.284605e-02
2.615732e-02
2.453753e-02
2.245592e-02
2.108040e-02
2.453753e-02
2.284605e-02
2.108040e-02
1.964374e-02
2.245592e-02
2.108040e-02
1.873826e-02
1.760100e-02
2.108040e-02
1.964374e-02
1.760100e-02
1.641300e-02
1.873826e-02
1.760100e-02
1.500701e-02
1.410304e-02
1.760100e-02
1.641300e-02
1.410304e-02
1.315863e-02
1.500701e-02
1.410304e-02
1.126483e-02
1.059025e-02
1.410304e-02
1.315863e-02
1.059025e-02
9.885421e-03
1.126483e-02
1.059025e-02
7.514457e-03
7.066342e-03
1.059025e-02
9.885421e-03
7.066342e-03
6.598104e-03
7.514457e-03
7.066342e-03
3.758600e-03
3.535023e-03
7.066342e-03
6.598104e-03
3.535023e-03
3.301397e-03
3.758600e-03
3.535023e-03
0.000000e+00
0.000000e+00
3.535023e-03
3.301397e-03
0.000000e+00
0.000000e+00
</DataArray>
<DataArray type="Float32" Name="V4" format="ascii">
8.500000e-01
9.250000e-01
8.500000e-01
9.250000e-01
9.250000e-01
1.000000e+00