<?xml version="1.0"?>
<VTKFile type="UnstructuredGrid" version="0.1" byte_order="LittleEndian" compressor="vtkZLibDataCompressor">
<UnstructuredGrid>
<Piece NumberOfPoints="504" NumberOfCells="126">
<Points>
<DataArray type="Float32" NumberOfComponents="3" format="ascii">
0.000000e+00 8.031128e-01 0.000000e+00
0.000000e+00 8.522182e-01 0.000000e+00
2.736969e-02 8.031268e-01 0.000000e+00
2.734901e-02 8.522268e-01 0.000000e+00
0.000000e+00 8.522182e-01 0.000000e+00
0.000000e+00 9.100000e-01 0.000000e+00
2.734901e-02 8.522268e-01 0.000000e+00
2.734795e-02 9.100000e-01 0.000000e+00
2.736969e-02 8.031268e-01 0.000000e+00
2.734901e-02 8.522268e-01 0.000000e+00
5.473829e-02 8.031657e-01 0.000000e+00
5.469869e-02 8.522523e-01 0.000000e+00
2.734901e-02 8.522268e-01 0.000000e+00
2.734795e-02 9.100000e-01 0.000000e+00
5.469869e-02 8.522523e-01 0.000000e+00
5.469821e-02 9.100000e-01 0.000000e+00
5.473829e-02 8.031657e-01 0.000000e+00
5.469869e-02 8.522523e-01 0.000000e+00
8.210436e-02 8.032311e-01 0.000000e+00
8.204984e-02 8.522956e-01 0.000000e+00
5.469869e-02 8.522523e-01 0.000000e+00
5.469821e-02 9.100000e-01 0.000000e+00
8.204984e-02 8.522956e-01 0.000000e+00
8.205337e-02 9.100000e-01 0.000000e+00
8.210436e-02 8.032311e-01 0.000000e+00
8.204984e-02 8.522956e-01 0.000000e+00
1.094663e-01 8.033238e-01 0.000000e+00
1.094033e-01 8.523577e-01 0.000000e+00
8.204984e-02 8.522956e-01 0.000000e+00
8.205337e-02 9.100000e-01 0.000000e+00
1.094033e-01 8.523577e-01 0.000000e+00
1.094165e-01 9.100000e-01 0.000000e+00
1.094663e-01 8.033238e-01 0.000000e+00
1.094033e-01 8.523577e-01 0.000000e+00
1.368219e-01 8.034446e-01 0.000000e+00
1.367603e-01 8.524403e-01 0.000000e+00
1.094033e-01 8.523577e-01 0.000000e+00
1.094165e-01 9.100000e-01 0.000000e+00
1.367603e-01 8.524403e-01 0.000000e+00
1.367914e-01 9.100000e-01 0.000000e+00
1.368219e-01 8.034446e-01 0.000000e+00
1.367603e-01 8.524403e-01 0.000000e+00
1.641682e-01 8.035948e-01 0.000000e+00
1.641220e-01 8.525457e-01 0.000000e+00
1.367603e-01 8.524403e-01 0.000000e+00
1.367914e-01 9.100000e-01 0.000000e+00
1.641220e-01 8.525457e-01 0.000000e+00
1.641829e-01 9.100000e-01 0.000000e+00
1.641682e-01 8.035948e-01 0.000000e+00
1.641220e-01 8.525457e-01 0.000000e+00
1.915013e-01 8.037760e-01 0.000000e+00
1.914903e-01 8.526766e-01 0.000000e+00
1.641220e-01 8.525457e-01 0.000000e+00
1.641829e-01 9.100000e-01 0.000000e+00
1.914903e-01 8.526766e-01 0.000000e+00
1.915975e-01 9.100000e-01 0.000000e+00
1.915013e-01 8.037760e-01 0.000000e+00
1.914903e-01 8.526766e-01 0.000000e+00
2.188157e-01 8.039897e-01 0.000000e+00
2.188673e-01 8.528364e-01 0.000000e+00
1.914903e-01 8.526766e-01 0.000000e+00
1.915975e-01 9.100000e-01 0.000000e+00
2.188673e-01 8.528364e-01 0.000000e+00
2.190433e-01 9.100000e-01 0.000000e+00
2.188157e-01 8.039897e-01 0.000000e+00
2.188673e-01 8.528364e-01 0.000000e+00
2.461035e-01 8.042372e-01 0.000000e+00
2.462555e-01 8.530292e-01 0.000000e+00
2.188673e-01 8.528364e-01 0.000000e+00
2.190433e-01 9.100000e-01 0.000000e+00
2.462555e-01 8.530292e-01 0.000000e+00
2.465309e-01 9.100000e-01 0.000000e+00
2.461035e-01 8.042372e-01 0.000000e+00
2.462555e-01 8.530292e-01 0.000000e+00
2.733545e-01 8.045190e-01 0.000000e+00
2.736579e-01 8.532591e-01 0.000000e+00
2.462555e-01 8.530292e-01 0.000000e+00
2.465309e-01 9.100000e-01 0.000000e+00
2.736579e-01 8.532591e-01 0.000000e+00
2.740734e-01 9.100000e-01 0.000000e+00
2.733545e-01 8.045190e-01 0.000000e+00
2.736579e-01 8.532591e-01 0.000000e+00
3.005545e-01 8.048340e-01 0.000000e+00
3.010775e-01 8.535301e-01 0.000000e+00
2.736579e-01 8.532591e-01 0.000000e+00
2.740734e-01 9.100000e-01 0.000000e+00
3.010775e-01 8.535301e-01 0.000000e+00
3.016874e-01 9.100000e-01 0.000000e+00
3.005545e-01 8.048340e-01 0.000000e+00
3.010775e-01 8.535301e-01 0.000000e+00
3.276846e-01 8.051778e-01 0.000000e+00
3.285164e-01 8.538447e-01 0.000000e+00
3.010775e-01 8.535301e-01 0.000000e+00
3.016874e-01 9.100000e-01 0.000000e+00
3.285164e-01 8.538447e-01 0.000000e+00
3.293927e-01 9.100000e-01 0.000000e+00
3.276846e-01 8.051778e-01 0.000000e+00
3.285164e-01 8.538447e-01 0.000000e+00
3.547199e-01 8.055401e-01 0.000000e+00
3.559748e-01 8.542021e-01 0.000000e+00
3.285164e-01 8.538447e-01 0.000000e+00
3.293927e-01 9.100000e-01 0.000000e+00
3.559748e-01 8.542021e-01 0.000000e+00
3.572119e-01 9.100000e-01 0.000000e+00
3.547199e-01 8.055401e-01 0.000000e+00
3.559748e-01 8.542021e-01 0.000000e+00
3.816282e-01 8.059008e-01 0.000000e+00
3.834481e-01 8.545942e-01 0.000000e+00
3.559748e-01 8.542021e-01 0.000000e+00
3.572119e-01 9.100000e-01 0.000000e+00
3.834481e-01 8.545942e-01 0.000000e+00
3.851696e-01 9.100000e-01 0.000000e+00
3.816282e-01 8.059008e-01 0.000000e+00
3.834481e-01 8.545942e-01 0.000000e+00
4.083695e-01 8.062230e-01 0.000000e+00
4.109210e-01 8.549988e-01 0.000000e+00
3.834481e-01 8.545942e-01 0.000000e+00
3.851696e-01 9.100000e-01 0.000000e+00
4.109210e-01 8.549988e-01 0.000000e+00
4.132889e-01 9.100000e-01 0.000000e+00
4.083695e-01 8.062230e-01 0.000000e+00
4.109210e-01 8.549988e-01 0.000000e+00
4.348949e-01 8.064427e-01 0.000000e+00
4.383577e-01 8.553670e-01 0.000000e+00
4.109210e-01 8.549988e-01 0.000000e+00
4.132889e-01 9.100000e-01 0.000000e+00
4.383577e-01 8.553670e-01 0.000000e+00
4.415852e-01 9.100000e-01 0.000000e+00
4.348949e-01 8.064427e-01 0.000000e+00
4.383577e-01 8.553670e-01 0.000000e+00
4.611474e-01 8.064537e-01 0.000000e+00
4.656850e-01 8.555972e-01 0.000000e+00
4.383577e-01 8.553670e-01 0.000000e+00
4.415852e-01 9.100000e-01 0.000000e+00
4.656850e-01 8.555972e-01 0.000000e+00
4.700553e-01 9.100000e-01 0.000000e+00
4.611474e-01 8.064537e-01 0.000000e+00
4.656850e-01 8.555972e-01 0.000000e+00
4.870533e-01 8.060725e-01 0.000000e+00
4.927839e-01 8.554736e-01 0.000000e+00
4.656850e-01 8.555972e-01 0.000000e+00
4.700553e-01 9.100000e-01 0.000000e+00
4.927839e-01 8.554736e-01 0.000000e+00
4.986491e-01 9.100000e-01 0.000000e+00
4.870533e-01 8.060725e-01 0.000000e+00
4.927839e-01 8.554736e-01 0.000000e+00
5.126227e-01 8.050811e-01 0.000000e+00
5.196697e-01 8.547026e-01 0.000000e+00
4.927839e-01 8.554736e-01 0.000000e+00
4.986491e-01 9.100000e-01 0.000000e+00
5.196697e-01 8.547026e-01 0.000000e+00
5.269839e-01 9.095919e-01 0.000000e+00
5.126227e-01 8.050811e-01 0.000000e+00
5.196697e-01 8.547026e-01 0.000000e+00
5.378166e-01 8.031264e-01 0.000000e+00
5.462733e-01 8.526989e-01 0.000000e+00
5.196697e-01 8.547026e-01 0.000000e+00
5.269839e-01 9.095919e-01 0.000000e+00
5.462733e-01 8.526989e-01 0.000000e+00
5.552032e-01 9.069486e-01 0.000000e+00
5.378166e-01 8.031264e-01 0.000000e+00
5.462733e-01 8.526989e-01 0.000000e+00
5.626365e-01 8.000890e-01 0.000000e+00
5.726531e-01 8.494145e-01 0.000000e+00
5.462733e-01 8.526989e-01 0.000000e+00
5.552032e-01 9.069486e-01 0.000000e+00
5.726531e-01 8.494145e-01 0.000000e+00
5.834706e-01 9.028058e-01 0.000000e+00
5.626365e-01 8.000890e-01 0.000000e+00
5.726531e-01 8.494145e-01 0.000000e+00
5.871293e-01 7.958616e-01 0.000000e+00
5.988618e-01 8.447636e-01 0.000000e+00
5.726531e-01 8.494145e-01 0.000000e+00
5.834706e-01 9.028058e-01 0.000000e+00
5.988618e-01 8.447636e-01 0.000000e+00
6.116310e-01 8.972608e-01 0.000000e+00
5.871293e-01 7.958616e-01 0.000000e+00
5.988618e-01 8.447636e-01 0.000000e+00
6.113070e-01 7.904554e-01 0.000000e+00
6.248579e-01 8.387959e-01 0.000000e+00
5.988618e-01 8.447636e-01 0.000000e+00
6.116310e-01 8.972608e-01 0.000000e+00
6.248579e-01 8.387959e-01 0.000000e+00
6.395955e-01 8.903803e-01 0.000000e+00
6.113070e-01 7.904554e-01 0.000000e+00
6.248579e-01 8.387959e-01 0.000000e+00
6.351693e-01 7.838971e-01 0.000000e+00
6.505792e-01 8.315596e-01 0.000000e+00
6.248579e-01 8.387959e-01 0.000000e+00
6.395955e-01 8.903803e-01 0.000000e+00
6.505792e-01 8.315596e-01 0.000000e+00
6.672775e-01 8.822069e-01 0.000000e+00
6.351693e-01 7.838971e-01 0.000000e+00
6.505792e-01 8.315596e-01 0.000000e+00
6.587043e-01 7.762244e-01 0.000000e+00
6.759683e-01 8.231087e-01 0.000000e+00
6.505792e-01 8.315596e-01 0.000000e+00
6.672775e-01 8.822069e-01 0.000000e+00
6.759683e-01 8.231087e-01 0.000000e+00
6.946021e-01 8.727864e-01 0.000000e+00
6.587043e-01 7.762244e-01 0.000000e+00
6.759683e-01 8.231087e-01 0.000000e+00
6.818935e-01 7.674771e-01 0.000000e+00
7.009769e-01 8.134973e-01 0.000000e+00
6.759683e-01 8.231087e-01 0.000000e+00
6.946021e-01 8.727864e-01 0.000000e+00
7.009769e-01 8.134973e-01 0.000000e+00
7.215055e-01 8.621691e-01 0.000000e+00
6.818935e-01 7.674771e-01 0.000000e+00
7.009769e-01 8.134973e-01 0.000000e+00
7.047147e-01 7.576960e-01 0.000000e+00
7.255644e-01 8.027795e-01 0.000000e+00
7.009769e-01 8.134973e-01 0.000000e+00
7.215055e-01 8.621691e-01 0.000000e+00
7.255644e-01 8.027795e-01 0.000000e+00
7.479349e-01 8.504081e-01 0.000000e+00
7.047147e-01 7.576960e-01 0.000000e+00
7.255644e-01 8.027795e-01 0.000000e+00
7.271447e-01 7.469217e-01 0.000000e+00
7.496964e-01 7.910078e-01 0.000000e+00
7.255644e-01 8.027795e-01 0.000000e+00
7.479349e-01 8.504081e-01 0.000000e+00
7.496964e-01 7.910078e-01 0.000000e+00
7.738474e-01 8.375571e-01 0.000000e+00
7.271447e-01 7.469217e-01 0.000000e+00
7.496964e-01 7.910078e-01 0.000000e+00
7.491598e-01 7.351946e-01 0.000000e+00
7.733433e-01 7.782329e-01 0.000000e+00
7.496964e-01 7.910078e-01 0.000000e+00
7.738474e-01 8.375571e-01 0.000000e+00
7.733433e-01 7.782329e-01 0.000000e+00
7.992077e-01 8.236696e-01 0.000000e+00
7.491598e-01 7.351946e-01 0.000000e+00
7.733433e-01 7.782329e-01 0.000000e+00
7.707373e-01 7.225543e-01 0.000000e+00
7.964795e-01 7.645034e-01 0.000000e+00
7.733433e-01 7.782329e-01 0.000000e+00
7.992077e-01 8.236696e-01 0.000000e+00
7.964795e-01 7.645034e-01 0.000000e+00
8.239869e-01 8.087970e-01 0.000000e+00
7.707373e-01 7.225543e-01 0.000000e+00
7.964795e-01 7.645034e-01 0.000000e+00
7.918552e-01 7.090399e-01 0.000000e+00
8.190825e-01 7.498657e-01 0.000000e+00
7.964795e-01 7.645034e-01 0.000000e+00
8.239869e-01 8.087970e-01 0.000000e+00
8.190825e-01 7.498657e-01 0.000000e+00
8.481613e-01 7.929890e-01 0.000000e+00
7.918552e-01 7.090399e-01 0.000000e+00
[...]
<PointData>
<DataArray type="Float32" Name="V1" format="ascii">
1.371424e+01
5.004764e+00
1.371921e+01
5.009733e+00
5.278688e+00
5.812037e-01
5.282373e+00
5.848890e-01
1.372049e+01
5.008221e+00
1.373290e+01
5.020630e+00
5.283546e+00
5.840010e-01
5.292791e+00
5.932458e-01
1.373579e+01
5.017861e+00
1.375635e+01
5.038416e+00
5.295285e+00
5.916519e-01
5.310973e+00
6.073405e-01
1.375995e+01
5.034754e+00
1.378814e+01
5.062953e+00
5.314545e+00
6.048978e-01
5.336981e+00
6.273337e-01
1.379166e+01
5.059186e+00
1.382675e+01
5.094275e+00
5.341492e+00
6.240925e-01
5.371160e+00
6.537601e-01
1.382895e+01
5.091603e+00
1.386987e+01
5.132514e+00
5.376400e+00
6.497740e-01
5.414052e+00
6.874266e-01
1.386900e+01
5.132674e+00
1.391426e+01
5.177939e+00
5.419683e+00
6.827980e-01
5.466449e+00
7.295632e-01
1.390781e+01
5.183390e+00
1.395545e+01
5.231033e+00
5.471971e+00
7.244372e-01
5.529522e+00
7.819886e-01
1.393995e+01
5.245203e+00
1.398736e+01
5.292616e+00
5.534179e+00
7.766093e-01
5.604967e+00
8.473975e-01
1.395810e+01
5.320203e+00
1.400191e+01
5.364015e+00
5.607627e+00
8.421629e-01
5.695233e+00
9.297696e-01
1.395267e+01
5.411348e+00
1.398863e+01
5.447305e+00
5.694162e+00
9.253591e-01
5.803808e+00
1.035004e+00
1.391141e+01
5.522693e+00
1.393432e+01
5.545598e+00
5.796306e+00
1.032609e+00
5.935606e+00
1.171908e+00
1.381931e+01
5.659596e+00
1.382313e+01
5.663414e+00
5.917337e+00
1.173699e+00
6.097445e+00
1.353808e+00
1.365900e+01
5.828736e+00
1.363733e+01
5.807064e+00
6.061214e+00
1.363869e+00
6.298603e+00
1.601258e+00
1.341240e+01
6.037764e+00
1.335968e+01
5.985051e+00
6.232035e+00
1.627497e+00
6.551268e+00
1.946729e+00
1.306451e+01
6.294300e+00
1.297854e+01
6.208328e+00
6.432196e+00
2.004904e+00
6.870298e+00
2.443006e+00
1.261033e+01
6.605381e+00
1.249528e+01
6.490332e+00
6.655990e+00
2.566577e+00
7.268335e+00
3.178923e+00
1.206882e+01
6.972051e+00
1.193839e+01
6.841624e+00
6.860044e+00
3.449408e+00
7.730336e+00
4.319700e+00
1.144068e+01
7.453311e+00
1.134427e+01
7.356902e+00
6.871989e+00
5.082758e+00
7.889803e+00
6.100571e+00
1.090838e+01
7.875367e+00
1.081769e+01
7.784678e+00
7.390077e+00
6.442516e+00
7.900124e+00
6.952562e+00
1.051041e+01
8.113128e+00
1.047747e+01
8.080186e+00
7.819390e+00
6.965550e+00
8.169409e+00
7.315569e+00
1.025960e+01
8.307655e+00
1.027012e+01
8.318176e+00
8.087564e+00
7.355483e+00
8.370020e+00
7.637940e+00
1.013608e+01
8.463113e+00
1.019042e+01
8.517457e+00
8.306648e+00
7.674724e+00
8.548918e+00
7.916994e+00
1.010897e+01
8.608406e+00
1.019919e+01
8.698626e+00
8.503297e+00
7.945216e+00
8.715716e+00
8.157635e+00
1.015243e+01
8.751853e+00
1.026895e+01
8.868376e+00
8.687817e+00
8.175154e+00
8.876067e+00
8.363405e+00
1.024573e+01
8.895043e+00
1.038027e+01
9.029588e+00
8.863349e+00
8.371023e+00
9.031312e+00
8.538986e+00
1.037370e+01
9.037081e+00
1.051974e+01
9.183126e+00
9.030716e+00
8.538462e+00
9.181410e+00
8.689156e+00
1.052524e+01
9.176617e+00
1.067781e+01
9.329188e+00
9.190002e+00
8.682412e+00
9.325891e+00
8.818300e+00
1.069214e+01
9.312448e+00
1.084749e+01
9.467802e+00
9.341176e+00
8.807045e+00
9.464295e+00
8.930164e+00
1.086825e+01
9.443671e+00
1.102359e+01
9.599015e+00
9.484266e+00
8.915794e+00
9.596306e+00
9.027834e+00
1.104892e+01
9.569672e+00
1.120219e+01
9.722942e+00
9.619402e+00
9.011436e+00
9.721767e+00
9.113801e+00
1.123068e+01
9.690074e+00
1.138037e+01
9.839767e+00
9.746796e+00
9.096199e+00
9.840654e+00
9.190057e+00
1.141088e+01
9.804685e+00
1.155592e+01
9.949728e+00
9.866718e+00
9.171865e+00
9.953044e+00
9.258192e+00
1.158758e+01
9.913444e+00
1.172723e+01
1.005310e+01
9.979474e+00
9.239860e+00
1.005909e+01
9.319471e+00
1.175936e+01
1.001639e+01
1.189313e+01
1.015016e+01
1.008539e+01
9.301325e+00
1.015898e+01
9.374911e+00
1.192521e+01
1.011363e+01
1.205281e+01
1.024122e+01
1.018480e+01
9.357182e+00
1.025294e+01
9.425324e+00
1.208443e+01
1.020531e+01
1.220570e+01
1.032657e+01
1.027803e+01
9.408173e+00
1.034122e+01
9.471369e+00
1.223657e+01
1.029161e+01
1.235147e+01
1.040651e+01
1.036540e+01
9.454904e+00
1.042407e+01
9.513578e+00
1.238136e+01
1.037274e+01
1.248994e+01
1.048131e+01
1.044722e+01
9.497868e+00
1.050174e+01
9.552388e+00
1.251869e+01
1.044889e+01
1.262103e+01
1.055124e+01
1.052378e+01
9.537472e+00
1.057446e+01
9.588156e+00
1.264854e+01
1.052029e+01
1.274479e+01
1.061654e+01
1.059535e+01
9.574053e+00
1.064248e+01
9.621178e+00
1.277097e+01
1.058714e+01
1.286130e+01
1.067747e+01
1.066221e+01
9.607891e+00
1.070602e+01
9.651700e+00
1.288612e+01
1.064965e+01
1.297070e+01
1.073423e+01
1.072459e+01
9.639224e+00
1.076530e+01
9.679931e+00
1.299413e+01
1.070801e+01
1.307316e+01
1.078704e+01
1.078272e+01
9.668249e+00
1.082051e+01
9.706045e+00
1.309520e+01
1.076241e+01
1.316887e+01
1.083608e+01
1.083681e+01
9.695138e+00
1.087186e+01
9.730191e+00
1.318953e+01
1.081303e+01
1.325804e+01
1.088154e+01
1.088706e+01
9.720036e+00
1.091952e+01
9.752497e+00
1.327734e+01
1.086003e+01
1.334087e+01
1.092357e+01
1.093364e+01
9.743069e+00
1.096365e+01
9.773073e+00
1.335883e+01
1.090359e+01
1.341758e+01
1.096234e+01
1.097674e+01
9.764347e+00
1.100441e+01
9.792014e+00
1.343422e+01
1.094384e+01
1.348835e+01
1.099797e+01
1.101649e+01
9.783966e+00
1.104193e+01
9.809404e+00
1.350371e+01
1.098091e+01
1.355340e+01
1.103060e+01
1.105305e+01
9.802009e+00
1.107636e+01
9.825316e+00
1.356750e+01
1.101494e+01
1.361289e+01
1.106034e+01
1.108654e+01
9.818549e+00
1.110781e+01
9.839813e+00
1.362578e+01
1.104605e+01
1.366702e+01
1.108729e+01
1.111708e+01
9.833653e+00
1.113638e+01
9.852951e+00
1.367871e+01
1.107433e+01
1.371593e+01
1.111155e+01
1.114478e+01
9.847378e+00
1.116218e+01
9.864779e+00
1.372646e+01
1.109989e+01
1.375978e+01
1.113321e+01
1.116973e+01
9.859773e+00
1.118530e+01
9.875341e+00
1.376917e+01
1.112281e+01
1.379870e+01
1.115233e+01
1.119203e+01
9.870885e+00
1.120581e+01
9.884673e+00
1.380698e+01
1.114317e+01
1.383281e+01
1.116900e+01
1.121174e+01
9.880752e+00
1.122379e+01
9.892809e+00
1.384001e+01
1.116103e+01
1.386223e+01
1.118325e+01
1.122893e+01
9.889408e+00
1.123930e+01
9.899775e+00
1.386836e+01
1.117647e+01
1.388704e+01
1.119515e+01
1.124367e+01
9.896882e+00
1.125238e+01
9.905596e+00
1.389212e+01
1.118953e+01
1.390732e+01
1.120472e+01
1.125600e+01
9.903201e+00
1.126309e+01
9.910291e+00
1.391136e+01
1.120025e+01
1.392313e+01
1.121202e+01
1.126598e+01
9.908385e+00
1.127147e+01
9.913875e+00
1.392616e+01
1.120867e+01
1.393454e+01
1.121705e+01
1.127362e+01
9.912451e+00
1.127753e+01
9.916359e+00
1.393655e+01
1.121483e+01
1.394157e+01
1.121985e+01
1.127896e+01
9.915413e+00
1.128130e+01
9.917753e+00
1.394257e+01
1.121874e+01
1.394424e+01
1.122041e+01
1.128201e+01
9.917281e+00
1.128279e+01
9.918060e+00
</DataArray>
<DataArray type="Float32" Name="V2" format="ascii">
8.031128e-01
8.522182e-01
8.035595e-01
8.526437e-01
8.522182e-01
9.100000e-01
8.526437e-01
9.103990e-01
8.035595e-01
8.526437e-01
8.048958e-01
8.539194e-01
8.526437e-01
9.103990e-01
8.539194e-01
9.115953e-01
8.048958e-01
8.539194e-01
8.071208e-01
8.560440e-01
8.539194e-01
9.115953e-01
8.560440e-01
9.135873e-01
8.071208e-01
8.560440e-01
8.102312e-01
8.590152e-01
8.560440e-01
9.135873e-01
8.590152e-01
9.163724e-01
8.102312e-01
8.590152e-01
8.142221e-01
8.628300e-01
8.590152e-01
9.163724e-01
8.628300e-01
9.199468e-01
8.142221e-01
8.628300e-01
8.190873e-01
8.674846e-01
8.628300e-01
9.199468e-01
8.674846e-01
9.243063e-01
8.190873e-01
8.674846e-01
8.248187e-01
8.729745e-01
8.674846e-01
9.243063e-01
8.729745e-01
9.294456e-01
8.248187e-01
8.729745e-01
8.314061e-01
8.792945e-01
8.729745e-01
9.294456e-01
8.792945e-01
9.353596e-01
8.314061e-01
8.792945e-01
8.388364e-01
8.864390e-01
8.792945e-01
9.353596e-01
8.864390e-01
9.420427e-01
8.388364e-01
8.864390e-01
8.470933e-01
8.944011e-01
8.864390e-01
9.420427e-01
8.944011e-01
9.494900e-01
8.470933e-01
8.944011e-01
8.561550e-01
9.031727e-01
8.944011e-01
9.494900e-01
9.031727e-01
9.576972e-01
8.561550e-01
9.031727e-01
8.659927e-01
9.127427e-01
9.031727e-01
9.576972e-01
9.127427e-01
9.666614e-01
8.659927e-01
9.127427e-01
8.765670e-01
9.230947e-01
9.127427e-01
9.666614e-01
9.230947e-01
9.763811e-01
8.765670e-01
9.230947e-01
8.878236e-01
9.342028e-01
9.230947e-01
9.763811e-01
9.342028e-01
9.868561e-01
8.878236e-01
9.342028e-01
8.996860e-01
9.460223e-01
9.342028e-01
9.868561e-01
9.460223e-01
9.980865e-01
8.996860e-01
9.460223e-01
9.120461e-01
9.584737e-01
9.460223e-01
9.980865e-01
9.584737e-01
1.010070e+00
9.120461e-01
9.584737e-01
9.247512e-01
9.714121e-01
9.584737e-01
1.010070e+00
9.714121e-01
1.022798e+00
9.247512e-01
9.714121e-01
9.375707e-01
9.845660e-01
9.714121e-01
1.022798e+00
9.845660e-01
1.036237e+00
9.375707e-01
9.845660e-01
9.502829e-01
9.976546e-01
9.845660e-01
1.036237e+00
9.976546e-01
1.049836e+00
9.502829e-01
9.976546e-01
9.625359e-01
1.010116e+00
9.976546e-01
1.049836e+00
1.010116e+00
1.062030e+00
9.625359e-01
1.010116e+00
9.742157e-01
1.021941e+00
1.010116e+00
1.062030e+00
1.021941e+00
1.073588e+00
9.742157e-01
1.021941e+00
9.852513e-01
1.033097e+00
1.021941e+00
1.073588e+00
1.033097e+00
1.084550e+00
9.852513e-01
1.033097e+00
9.956654e-01
1.043625e+00
1.033097e+00
1.084550e+00
1.043625e+00
1.094953e+00
9.956654e-01
1.043625e+00
1.005490e+00
1.053551e+00
1.043625e+00
1.094953e+00
1.053551e+00
1.104804e+00
1.005490e+00
1.053551e+00
1.014761e+00
1.062905e+00
1.053551e+00
1.104804e+00
1.062905e+00
1.114118e+00
1.014761e+00
1.062905e+00
1.023511e+00
1.071718e+00
1.062905e+00
1.114118e+00
1.071718e+00
1.122911e+00
1.023511e+00
1.071718e+00
1.031773e+00
1.080020e+00
1.071718e+00
1.122911e+00
1.080020e+00
1.131206e+00
1.031773e+00
1.080020e+00
1.039575e+00
1.087843e+00
1.080020e+00
1.131206e+00
1.087843e+00
1.139026e+00
1.039575e+00
1.087843e+00
1.046944e+00
1.095215e+00
1.087843e+00
1.139026e+00
1.095215e+00
1.146396e+00
1.046944e+00
1.095215e+00
1.053904e+00
1.102164e+00
1.095215e+00
1.146396e+00
1.102164e+00
1.153344e+00
1.053904e+00
1.102164e+00
1.060481e+00
1.108718e+00
1.102164e+00
1.153344e+00
1.108718e+00
1.159892e+00
1.060481e+00
1.108718e+00
1.066694e+00
1.114899e+00
1.108718e+00
1.159892e+00
1.114899e+00
1.166065e+00
1.066694e+00
1.114899e+00
1.072565e+00
1.120730e+00
1.114899e+00
1.166065e+00
1.120730e+00
1.171886e+00
1.072565e+00
1.120730e+00
1.078113e+00
1.126233e+00
1.120730e+00
1.171886e+00
1.126233e+00
1.177374e+00
1.078113e+00
1.126233e+00
1.083355e+00
1.131426e+00
1.126233e+00
1.177374e+00
1.131426e+00
1.182550e+00
1.083355e+00
1.131426e+00
1.088306e+00
1.136326e+00
1.131426e+00
1.182550e+00
1.136326e+00
1.187431e+00
1.088306e+00
1.136326e+00
1.092982e+00
1.140949e+00
1.136326e+00
1.187431e+00
1.140949e+00
1.192033e+00
1.092982e+00
1.140949e+00
1.097396e+00
1.145310e+00
1.140949e+00
1.192033e+00
1.145310e+00
1.196372e+00
1.097396e+00
1.145310e+00
1.101561e+00
1.149421e+00
1.145310e+00
1.196372e+00
1.149421e+00
1.200460e+00
1.101561e+00
1.149421e+00
1.105487e+00
1.153296e+00
1.149421e+00
1.200460e+00
1.153296e+00
1.204310e+00
1.105487e+00
1.153296e+00
1.109187e+00
1.156944e+00
1.153296e+00
1.204310e+00
1.156944e+00
1.207934e+00
1.109187e+00
1.156944e+00
1.112668e+00
1.160375e+00
1.156944e+00
1.207934e+00
1.160375e+00
1.211341e+00
1.112668e+00
1.160375e+00
1.115940e+00
1.163600e+00
1.160375e+00
1.211341e+00
1.163600e+00
1.214541e+00
1.115940e+00
1.163600e+00
1.119011e+00
1.166625e+00
1.163600e+00
1.214541e+00
1.166625e+00
1.217543e+00
1.119011e+00
1.166625e+00
1.121888e+00
1.169458e+00
1.166625e+00
1.217543e+00
1.169458e+00
1.220353e+00
1.121888e+00
1.169458e+00
1.124577e+00
1.172106e+00
1.169458e+00
1.220353e+00
1.172106e+00
1.222979e+00
1.124577e+00
1.172106e+00
1.127085e+00
1.174575e+00
1.172106e+00
1.222979e+00
1.174575e+00
1.225426e+00
1.127085e+00
1.174575e+00
1.129418e+00
1.176871e+00
1.174575e+00
1.225426e+00
1.176871e+00
1.227702e+00
1.129418e+00
1.176871e+00
1.131579e+00
1.178998e+00
1.176871e+00
1.227702e+00
1.178998e+00
1.229809e+00
1.131579e+00
1.178998e+00
1.133574e+00
1.180962e+00
1.178998e+00
1.229809e+00
1.180962e+00
1.231754e+00
1.133574e+00
1.180962e+00
1.135406e+00
1.182765e+00
1.180962e+00
1.231754e+00
1.182765e+00
1.233540e+00
1.135406e+00
1.182765e+00
1.137080e+00
1.184412e+00
1.182765e+00
1.233540e+00
1.184412e+00
1.235171e+00
1.137080e+00
1.184412e+00
1.138598e+00
1.185905e+00
1.184412e+00
1.235171e+00
1.185905e+00
1.236651e+00
1.138598e+00
1.185905e+00
1.139963e+00
1.187249e+00
1.185905e+00
1.236651e+00
1.187249e+00
1.237981e+00
1.139963e+00
1.187249e+00
1.141178e+00
1.188444e+00
1.187249e+00
1.237981e+00
1.188444e+00
1.239164e+00
1.141178e+00
1.188444e+00
1.142246e+00
1.189494e+00
1.188444e+00
1.239164e+00
1.189494e+00
1.240204e+00
1.142246e+00
1.189494e+00
1.143167e+00
1.190400e+00
1.189494e+00
1.240204e+00
1.190400e+00
1.241101e+00
1.143167e+00
1.190400e+00
1.143943e+00
1.191164e+00
1.190400e+00
1.241101e+00
1.191164e+00
1.241857e+00
1.143943e+00
1.191164e+00
1.144577e+00
1.191788e+00
1.191164e+00
1.241857e+00
1.191788e+00
1.242474e+00
1.144577e+00
1.191788e+00
1.145069e+00
1.192272e+00
1.191788e+00
1.242474e+00
1.192272e+00
1.242953e+00
1.145069e+00
1.192272e+00
1.145419e+00
1.192617e+00
1.192272e+00
1.242953e+00
1.192617e+00
1.243295e+00
1.145419e+00
1.192617e+00
1.145629e+00
1.192823e+00
1.192617e+00
1.243295e+00
1.192823e+00
1.243499e+00
1.145629e+00
1.192823e+00
1.145699e+00
1.192892e+00
1.192823e+00
1.243499e+00
1.192892e+00
1.243567e+00
</DataArray>
<DataArray type="Float32" Name="V3" format="ascii">
0.000000e+00
0.000000e+00
7.338675e-03
6.093905e-03
0.000000e+00
0.000000e+00
6.093905e-03
4.652524e-03
7.338675e-03
6.093905e-03
1.463574e-02
1.214943e-02
6.093905e-03
4.652524e-03
1.214943e-02
9.270459e-03
1.463574e-02
1.214943e-02
2.184924e-02
1.812829e-02
1.214943e-02
9.270459e-03
1.812829e-02
1.381955e-02
2.184924e-02
1.812829e-02
2.893709e-02
2.399226e-02
1.812829e-02
1.381955e-02
2.399226e-02
1.826603e-02
2.893709e-02
2.399226e-02
3.585676e-02
2.970330e-02
2.399226e-02
1.826603e-02
2.970330e-02
2.257699e-02
3.585676e-02
2.970330e-02
4.256503e-02
3.522355e-02
2.970330e-02
2.257699e-02
3.522355e-02
2.672069e-02
4.256503e-02
3.522355e-02
4.901777e-02
4.051540e-02
3.522355e-02
2.672069e-02
4.051540e-02
3.066688e-02
4.901777e-02
4.051540e-02
5.516962e-02
4.554145e-02
4.051540e-02
3.066688e-02
4.554145e-02
3.438724e-02
5.516962e-02
4.554145e-02
6.097358e-02
5.026455e-02
4.554145e-02
3.438724e-02
5.026455e-02
3.785576e-02
6.097358e-02
5.026455e-02
6.638064e-02
5.464771e-02
5.026455e-02
3.785576e-02
5.464771e-02
4.104909e-02
6.638064e-02
5.464771e-02
7.133945e-02
5.865398e-02
5.464771e-02
4.104909e-02
5.865398e-02
4.394681e-02
7.133945e-02
5.865398e-02
7.579618e-02
6.224615e-02
5.865398e-02
4.394681e-02
6.224615e-02
4.653146e-02
7.579618e-02
6.224615e-02
7.969490e-02
6.538632e-02
6.224615e-02
4.653146e-02
6.538632e-02
4.878807e-02
7.969490e-02
6.538632e-02
8.297894e-02
6.803493e-02
6.538632e-02
4.878807e-02
6.803493e-02
5.070273e-02
8.297894e-02
6.803493e-02
8.559410e-02
7.014938e-02
6.803493e-02
5.070273e-02
7.014938e-02
5.225948e-02
8.559410e-02
7.014938e-02
8.749493e-02
7.168186e-02
7.014938e-02
5.225948e-02
7.168186e-02
5.343459e-02
8.749493e-02
7.168186e-02
8.865453e-02
7.257847e-02
7.168186e-02
5.343459e-02
7.257847e-02
5.418692e-02
8.865453e-02
7.257847e-02
8.907808e-02
7.280690e-02
7.257847e-02
5.418692e-02
7.280690e-02
5.443308e-02
8.907808e-02
7.280690e-02
8.888187e-02
7.251493e-02
7.280690e-02
5.443308e-02
7.251493e-02
5.398254e-02
8.888187e-02
7.251493e-02
8.822375e-02
7.194230e-02
7.251493e-02
5.398254e-02
7.194230e-02
5.383963e-02
8.822375e-02
7.194230e-02
8.721297e-02
7.122491e-02
7.194230e-02
5.383963e-02
7.122491e-02
5.389742e-02
8.721297e-02
7.122491e-02
8.600178e-02
7.051380e-02
7.122491e-02
5.389742e-02
7.051380e-02
5.403583e-02
8.600178e-02
7.051380e-02
8.465508e-02
6.981131e-02
7.051380e-02
5.403583e-02
6.981131e-02
5.420427e-02
8.465508e-02
6.981131e-02
8.321655e-02
6.909951e-02
6.981131e-02
5.420427e-02
6.909951e-02
5.436576e-02
8.321655e-02
6.909951e-02
8.171102e-02
6.835989e-02
6.909951e-02
5.436576e-02
6.835989e-02
5.449032e-02
8.171102e-02
6.835989e-02
8.015339e-02
6.757825e-02
6.835989e-02
5.449032e-02
6.757825e-02
5.455395e-02
8.015339e-02
6.757825e-02
7.855240e-02
6.674430e-02
6.757825e-02
5.455395e-02
6.674430e-02
5.453832e-02
7.855240e-02
6.674430e-02
7.691309e-02
6.585077e-02
6.674430e-02
5.453832e-02
6.585077e-02
5.443015e-02
7.691309e-02
6.585077e-02
7.523813e-02
6.489258e-02
6.585077e-02
5.443015e-02
6.489258e-02
5.422038e-02
7.523813e-02
6.489258e-02
7.352870e-02
6.386639e-02
6.489258e-02
5.422038e-02
6.386639e-02
5.390344e-02
7.352870e-02
6.386639e-02
7.178515e-02
6.277013e-02
6.386639e-02
5.390344e-02
6.277013e-02
5.347642e-02
7.178515e-02
6.277013e-02
7.000730e-02
6.160279e-02
6.277013e-02
5.347642e-02
6.160279e-02
5.293854e-02
7.000730e-02
6.160279e-02
6.819476e-02
6.036419e-02
6.160279e-02
5.293854e-02
6.036419e-02
5.229061e-02
6.819476e-02
6.036419e-02
6.634706e-02
5.905483e-02
6.036419e-02
5.229061e-02
5.905483e-02
5.153458e-02
6.634706e-02
5.905483e-02
6.446381e-02
5.767573e-02
5.905483e-02
5.153458e-02
5.767573e-02
5.067331e-02
6.446381e-02
5.767573e-02
6.254471e-02
5.622832e-02
5.767573e-02
5.067331e-02
5.622832e-02
4.971021e-02
6.254471e-02
5.622832e-02
6.058964e-02
5.471438e-02
5.622832e-02
4.971021e-02
5.471438e-02
4.864917e-02
6.058964e-02
5.471438e-02
5.859865e-02
5.313591e-02
5.471438e-02
4.864917e-02
5.313591e-02
4.749431e-02
5.859865e-02
5.313591e-02
5.657198e-02
5.149513e-02
5.313591e-02
4.749431e-02
5.149513e-02
4.624993e-02
5.657198e-02
5.149513e-02
5.451002e-02
4.979440e-02
5.149513e-02
4.624993e-02
4.979440e-02
4.492040e-02
5.451002e-02
4.979440e-02
5.241336e-02
4.803616e-02
4.979440e-02
4.492040e-02
4.803616e-02
4.351012e-02
5.241336e-02
4.803616e-02
5.028274e-02
4.622294e-02
4.803616e-02
4.351012e-02
4.622294e-02
4.202344e-02
5.028274e-02
4.622294e-02
4.811902e-02
4.435731e-02
4.622294e-02
4.202344e-02
4.435731e-02
4.046469e-02
4.811902e-02
4.435731e-02
4.592321e-02
4.244189e-02
4.435731e-02
4.046469e-02
4.244189e-02
3.883809e-02
4.592321e-02
4.244189e-02
4.369642e-02
4.047927e-02
4.244189e-02
3.883809e-02
4.047927e-02
3.714779e-02
4.369642e-02
4.047927e-02
4.143989e-02
3.847210e-02
4.047927e-02
3.714779e-02
3.847210e-02
3.539783e-02
4.143989e-02
3.847210e-02
3.915490e-02
3.642297e-02
3.847210e-02
3.539783e-02
3.642297e-02
3.359215e-02
3.915490e-02
3.642297e-02
3.684285e-02
3.433450e-02
3.642297e-02
3.359215e-02
3.433450e-02
3.173459e-02
3.684285e-02
3.433450e-02
3.450518e-02
3.220926e-02
3.433450e-02
3.173459e-02
3.220926e-02
2.982890e-02
3.450518e-02
3.220926e-02
3.214341e-02
3.004984e-02
3.220926e-02
2.982890e-02
3.004984e-02
2.787872e-02
3.214341e-02
3.004984e-02
2.975910e-02
2.785877e-02
3.004984e-02
2.787872e-02
2.785877e-02
2.588760e-02
2.975910e-02
2.785877e-02
2.735384e-02
2.563859e-02
2.785877e-02
2.588760e-02
2.563859e-02
2.385902e-02
2.735384e-02
2.563859e-02
2.492928e-02
2.339180e-02
2.563859e-02
2.385902e-02
2.339180e-02
2.179638e-02
2.492928e-02
2.339180e-02
2.248708e-02
2.112090e-02
2.339180e-02
2.179638e-02
2.112090e-02
1.970298e-02
2.248708e-02
2.112090e-02
2.002895e-02
1.882835e-02
2.112090e-02
1.970298e-02
1.882835e-02
1.758209e-02
2.002895e-02
1.882835e-02
1.755661e-02
1.651661e-02
1.882835e-02
1.758209e-02
1.651661e-02
1.543691e-02
1.755661e-02
1.651661e-02
1.507180e-02
1.418810e-02
1.651661e-02
1.543691e-02
1.418810e-02
1.327058e-02
1.507180e-02
1.418810e-02
1.257626e-02
1.184526e-02
1.418810e-02
1.327058e-02
1.184526e-02
1.108621e-02
1.257626e-02
1.184526e-02
1.007177e-02
9.490497e-03
1.184526e-02
1.108621e-02
9.490497e-03
8.886863e-03
1.007177e-02
9.490497e-03
7.560117e-03
7.126200e-03
9.490497e-03
8.886863e-03
7.126200e-03
6.675567e-03
7.560117e-03
7.126200e-03
5.043073e-03
4.754763e-03
7.126200e-03
6.675567e-03
4.754763e-03
4.455334e-03
5.043073e-03
4.754763e-03
2.522435e-03
2.378570e-03
4.754763e-03
4.455334e-03
2.378570e-03
2.229152e-03
2.522435e-03
2.378570e-03
0.000000e+00
0.000000e+00
2.378570e-03
2.229152e-03
0.000000e+00
0.000000e+00
</DataArray>
<DataArray type="Float32" Name="V4" format="ascii">
8.500000e-01
9.250000e-01
8.500000e-01
9.250000e-01
9.250000e-01
1.000000e+00