<?xml version="1.0"?>
<VTKFile type="UnstructuredGrid" version="0.1" byte_order="LittleEndian" compressor="vtkZLibDataCompressor">
<UnstructuredGrid>
<Piece NumberOfPoints="504" NumberOfCells="126">
<Points>
<DataArray type="Float32" NumberOfComponents="3" format="ascii">
0.000000e+00 4.418921e-01 0.000000e+00
0.000000e+00 4.687394e-01 0.000000e+00
3.700281e-02 4.419002e-01 0.000000e+00
3.699735e-02 4.687418e-01 0.000000e+00
0.000000e+00 4.687394e-01 0.000000e+00
0.000000e+00 5.003125e-01 0.000000e+00
3.699735e-02 4.687418e-01 0.000000e+00
3.699466e-02 5.003125e-01 0.000000e+00
3.700281e-02 4.419002e-01 0.000000e+00
3.699735e-02 4.687418e-01 0.000000e+00
7.400461e-02 4.419146e-01 0.000000e+00
7.399362e-02 4.687496e-01 0.000000e+00
3.699735e-02 4.687418e-01 0.000000e+00
3.699466e-02 5.003125e-01 0.000000e+00
7.399362e-02 4.687496e-01 0.000000e+00
7.398816e-02 5.003125e-01 0.000000e+00
7.400461e-02 4.419146e-01 0.000000e+00
7.399362e-02 4.687496e-01 0.000000e+00
1.110040e-01 4.419386e-01 0.000000e+00
1.109875e-01 4.687626e-01 0.000000e+00
7.399362e-02 4.687496e-01 0.000000e+00
7.398816e-02 5.003125e-01 0.000000e+00
1.109875e-01 4.687626e-01 0.000000e+00
1.109793e-01 5.003125e-01 0.000000e+00
1.110040e-01 4.419386e-01 0.000000e+00
1.109875e-01 4.687626e-01 0.000000e+00
1.479998e-01 4.419723e-01 0.000000e+00
1.479778e-01 4.687808e-01 0.000000e+00
1.109875e-01 4.687626e-01 0.000000e+00
1.109793e-01 5.003125e-01 0.000000e+00
1.479778e-01 4.687808e-01 0.000000e+00
1.479670e-01 5.003125e-01 0.000000e+00
1.479998e-01 4.419723e-01 0.000000e+00
1.479778e-01 4.687808e-01 0.000000e+00
1.849907e-01 4.420155e-01 0.000000e+00
1.849634e-01 4.688042e-01 0.000000e+00
1.479778e-01 4.687808e-01 0.000000e+00
1.479670e-01 5.003125e-01 0.000000e+00
1.849634e-01 4.688042e-01 0.000000e+00
1.849499e-01 5.003125e-01 0.000000e+00
1.849907e-01 4.420155e-01 0.000000e+00
1.849634e-01 4.688042e-01 0.000000e+00
2.219756e-01 4.420682e-01 0.000000e+00
2.219430e-01 4.688328e-01 0.000000e+00
1.849634e-01 4.688042e-01 0.000000e+00
1.849499e-01 5.003125e-01 0.000000e+00
2.219430e-01 4.688328e-01 0.000000e+00
2.219270e-01 5.003125e-01 0.000000e+00
2.219756e-01 4.420682e-01 0.000000e+00
2.219430e-01 4.688328e-01 0.000000e+00
2.589532e-01 4.421304e-01 0.000000e+00
2.589155e-01 4.688665e-01 0.000000e+00
2.219430e-01 4.688328e-01 0.000000e+00
2.219270e-01 5.003125e-01 0.000000e+00
2.589155e-01 4.688665e-01 0.000000e+00
2.588969e-01 5.003125e-01 0.000000e+00
2.589532e-01 4.421304e-01 0.000000e+00
2.589155e-01 4.688665e-01 0.000000e+00
2.959223e-01 4.422021e-01 0.000000e+00
2.958795e-01 4.689053e-01 0.000000e+00
2.589155e-01 4.688665e-01 0.000000e+00
2.588969e-01 5.003125e-01 0.000000e+00
2.958795e-01 4.689053e-01 0.000000e+00
2.958585e-01 5.003125e-01 0.000000e+00
2.959223e-01 4.422021e-01 0.000000e+00
2.958795e-01 4.689053e-01 0.000000e+00
3.328816e-01 4.422832e-01 0.000000e+00
3.328338e-01 4.689492e-01 0.000000e+00
2.958795e-01 4.689053e-01 0.000000e+00
2.958585e-01 5.003125e-01 0.000000e+00
3.328338e-01 4.689492e-01 0.000000e+00
3.328106e-01 5.003125e-01 0.000000e+00
3.328816e-01 4.422832e-01 0.000000e+00
3.328338e-01 4.689492e-01 0.000000e+00
3.698297e-01 4.423736e-01 0.000000e+00
3.697772e-01 4.689982e-01 0.000000e+00
3.328338e-01 4.689492e-01 0.000000e+00
3.328106e-01 5.003125e-01 0.000000e+00
3.697772e-01 4.689982e-01 0.000000e+00
3.697518e-01 5.003125e-01 0.000000e+00
3.698297e-01 4.423736e-01 0.000000e+00
3.697772e-01 4.689982e-01 0.000000e+00
4.067654e-01 4.424733e-01 0.000000e+00
4.067083e-01 4.690522e-01 0.000000e+00
3.697772e-01 4.689982e-01 0.000000e+00
3.697518e-01 5.003125e-01 0.000000e+00
4.067083e-01 4.690522e-01 0.000000e+00
4.066809e-01 5.003125e-01 0.000000e+00
4.067654e-01 4.424733e-01 0.000000e+00
4.067083e-01 4.690522e-01 0.000000e+00
4.436872e-01 4.425822e-01 0.000000e+00
4.436257e-01 4.691112e-01 0.000000e+00
4.067083e-01 4.690522e-01 0.000000e+00
4.066809e-01 5.003125e-01 0.000000e+00
4.436257e-01 4.691112e-01 0.000000e+00
4.435967e-01 5.003125e-01 0.000000e+00
4.436872e-01 4.425822e-01 0.000000e+00
4.436257e-01 4.691112e-01 0.000000e+00
4.805938e-01 4.427002e-01 0.000000e+00
4.805283e-01 4.691751e-01 0.000000e+00
4.436257e-01 4.691112e-01 0.000000e+00
4.435967e-01 5.003125e-01 0.000000e+00
4.805283e-01 4.691751e-01 0.000000e+00
4.804977e-01 5.003125e-01 0.000000e+00
4.805938e-01 4.427002e-01 0.000000e+00
4.805283e-01 4.691751e-01 0.000000e+00
5.174838e-01 4.428272e-01 0.000000e+00
5.174144e-01 4.692440e-01 0.000000e+00
4.805283e-01 4.691751e-01 0.000000e+00
4.804977e-01 5.003125e-01 0.000000e+00
5.174144e-01 4.692440e-01 0.000000e+00
5.173826e-01 5.003125e-01 0.000000e+00
5.174838e-01 4.428272e-01 0.000000e+00
5.174144e-01 4.692440e-01 0.000000e+00
5.543555e-01 4.429632e-01 0.000000e+00
5.542828e-01 4.693178e-01 0.000000e+00
5.174144e-01 4.692440e-01 0.000000e+00
5.173826e-01 5.003125e-01 0.000000e+00
5.542828e-01 4.693178e-01 0.000000e+00
5.542500e-01 5.003125e-01 0.000000e+00
5.543555e-01 4.429632e-01 0.000000e+00
5.542828e-01 4.693178e-01 0.000000e+00
5.912075e-01 4.431080e-01 0.000000e+00
5.911318e-01 4.693963e-01 0.000000e+00
5.542828e-01 4.693178e-01 0.000000e+00
5.542500e-01 5.003125e-01 0.000000e+00
5.911318e-01 4.693963e-01 0.000000e+00
5.910986e-01 5.003125e-01 0.000000e+00
5.912075e-01 4.431080e-01 0.000000e+00
5.911318e-01 4.693963e-01 0.000000e+00
6.280382e-01 4.432616e-01 0.000000e+00
6.279601e-01 4.694797e-01 0.000000e+00
5.911318e-01 4.693963e-01 0.000000e+00
5.910986e-01 5.003125e-01 0.000000e+00
6.279601e-01 4.694797e-01 0.000000e+00
6.279270e-01 5.003125e-01 0.000000e+00
6.280382e-01 4.432616e-01 0.000000e+00
6.279601e-01 4.694797e-01 0.000000e+00
6.648458e-01 4.434238e-01 0.000000e+00
6.647661e-01 4.695678e-01 0.000000e+00
6.279601e-01 4.694797e-01 0.000000e+00
6.279270e-01 5.003125e-01 0.000000e+00
6.647661e-01 4.695678e-01 0.000000e+00
6.647336e-01 5.003125e-01 0.000000e+00
6.648458e-01 4.434238e-01 0.000000e+00
6.647661e-01 4.695678e-01 0.000000e+00
7.016287e-01 4.435945e-01 0.000000e+00
7.015481e-01 4.696606e-01 0.000000e+00
6.647661e-01 4.695678e-01 0.000000e+00
6.647336e-01 5.003125e-01 0.000000e+00
7.015481e-01 4.696606e-01 0.000000e+00
7.015172e-01 5.003125e-01 0.000000e+00
7.016287e-01 4.435945e-01 0.000000e+00
7.015481e-01 4.696606e-01 0.000000e+00
7.383850e-01 4.437737e-01 0.000000e+00
7.383046e-01 4.697581e-01 0.000000e+00
7.015481e-01 4.696606e-01 0.000000e+00
7.015172e-01 5.003125e-01 0.000000e+00
7.383046e-01 4.697581e-01 0.000000e+00
7.382761e-01 5.003125e-01 0.000000e+00
7.383850e-01 4.437737e-01 0.000000e+00
7.383046e-01 4.697581e-01 0.000000e+00
7.751128e-01 4.439611e-01 0.000000e+00
7.750338e-01 4.698602e-01 0.000000e+00
7.383046e-01 4.697581e-01 0.000000e+00
7.382761e-01 5.003125e-01 0.000000e+00
7.750338e-01 4.698602e-01 0.000000e+00
7.750090e-01 5.003125e-01 0.000000e+00
7.751128e-01 4.439611e-01 0.000000e+00
7.750338e-01 4.698602e-01 0.000000e+00
8.118100e-01 4.441568e-01 0.000000e+00
8.117340e-01 4.699670e-01 0.000000e+00
7.750338e-01 4.698602e-01 0.000000e+00
7.750090e-01 5.003125e-01 0.000000e+00
8.117340e-01 4.699670e-01 0.000000e+00
8.117144e-01 5.003125e-01 0.000000e+00
8.118100e-01 4.441568e-01 0.000000e+00
8.117340e-01 4.699670e-01 0.000000e+00
8.484744e-01 4.443606e-01 0.000000e+00
8.484034e-01 4.700784e-01 0.000000e+00
8.117340e-01 4.699670e-01 0.000000e+00
8.117144e-01 5.003125e-01 0.000000e+00
8.484034e-01 4.700784e-01 0.000000e+00
8.483910e-01 5.003125e-01 0.000000e+00
8.484744e-01 4.443606e-01 0.000000e+00
8.484034e-01 4.700784e-01 0.000000e+00
8.851037e-01 4.445724e-01 0.000000e+00
8.850403e-01 4.701944e-01 0.000000e+00
8.484034e-01 4.700784e-01 0.000000e+00
8.483910e-01 5.003125e-01 0.000000e+00
8.850403e-01 4.701944e-01 0.000000e+00
8.850376e-01 5.003125e-01 0.000000e+00
8.851037e-01 4.445724e-01 0.000000e+00
8.850403e-01 4.701944e-01 0.000000e+00
9.216953e-01 4.447920e-01 0.000000e+00
9.216427e-01 4.703151e-01 0.000000e+00
8.850403e-01 4.701944e-01 0.000000e+00
8.850376e-01 5.003125e-01 0.000000e+00
9.216427e-01 4.703151e-01 0.000000e+00
9.216528e-01 5.003125e-01 0.000000e+00
9.216953e-01 4.447920e-01 0.000000e+00
9.216427e-01 4.703151e-01 0.000000e+00
9.582465e-01 4.450195e-01 0.000000e+00
9.582087e-01 4.704406e-01 0.000000e+00
9.216427e-01 4.703151e-01 0.000000e+00
9.216528e-01 5.003125e-01 0.000000e+00
9.582087e-01 4.704406e-01 0.000000e+00
9.582358e-01 5.003125e-01 0.000000e+00
9.582465e-01 4.450195e-01 0.000000e+00
9.582087e-01 4.704406e-01 0.000000e+00
9.947542e-01 4.452547e-01 0.000000e+00
9.947365e-01 4.705709e-01 0.000000e+00
9.582087e-01 4.704406e-01 0.000000e+00
9.582358e-01 5.003125e-01 0.000000e+00
9.947365e-01 4.705709e-01 0.000000e+00
9.947856e-01 5.003125e-01 0.000000e+00
9.947542e-01 4.452547e-01 0.000000e+00
9.947365e-01 4.705709e-01 0.000000e+00
1.031215e+00 4.454976e-01 0.000000e+00
1.031224e+00 4.707062e-01 0.000000e+00
9.947365e-01 4.705709e-01 0.000000e+00
9.947856e-01 5.003125e-01 0.000000e+00
1.031224e+00 4.707062e-01 0.000000e+00
1.031302e+00 5.003125e-01 0.000000e+00
1.031215e+00 4.454976e-01 0.000000e+00
1.031224e+00 4.707062e-01 0.000000e+00
1.067625e+00 4.457482e-01 0.000000e+00
1.067670e+00 4.708468e-01 0.000000e+00
1.031224e+00 4.707062e-01 0.000000e+00
1.031302e+00 5.003125e-01 0.000000e+00
1.067670e+00 4.708468e-01 0.000000e+00
1.067785e+00 5.003125e-01 0.000000e+00
1.067625e+00 4.457482e-01 0.000000e+00
1.067670e+00 4.708468e-01 0.000000e+00
1.103980e+00 4.460064e-01 0.000000e+00
1.104071e+00 4.709930e-01 0.000000e+00
1.067670e+00 4.708468e-01 0.000000e+00
1.067785e+00 5.003125e-01 0.000000e+00
1.104071e+00 4.709930e-01 0.000000e+00
1.104235e+00 5.003125e-01 0.000000e+00
1.103980e+00 4.460064e-01 0.000000e+00
1.104071e+00 4.709930e-01 0.000000e+00
1.140274e+00 4.462725e-01 0.000000e+00
1.140427e+00 4.711453e-01 0.000000e+00
1.104071e+00 4.709930e-01 0.000000e+00
1.104235e+00 5.003125e-01 0.000000e+00
1.140427e+00 4.711453e-01 0.000000e+00
1.140653e+00 5.003125e-01 0.000000e+00
1.140274e+00 4.462725e-01 0.000000e+00
[...]
<PointData>
<DataArray type="Float32" Name="V1" format="ascii">
1.506476e+02
5.709144e+01
1.507044e+02
5.714816e+01
5.946093e+01
1.336845e+01
5.948488e+01
1.339240e+01
1.507266e+02
5.711403e+01
1.508670e+02
5.725443e+01
5.950518e+01
1.338310e+01
5.957073e+01
1.344865e+01
1.509213e+02
5.719358e+01
1.511527e+02
5.742492e+01
5.960942e+01
1.342789e+01
5.972171e+01
1.354019e+01
1.512366e+02
5.733565e+01
1.515598e+02
5.765886e+01
5.977811e+01
1.350727e+01
5.993695e+01
1.366611e+01
1.516730e+02
5.754061e+01
1.520892e+02
5.795679e+01
6.001148e+01
1.362123e+01
6.021710e+01
1.382684e+01
1.522318e+02
5.780906e+01
1.527422e+02
5.831943e+01
6.031009e+01
1.377002e+01
6.056294e+01
1.402286e+01
1.529144e+02
5.814175e+01
1.535203e+02
5.874769e+01
6.067470e+01
1.395403e+01
6.097542e+01
1.425474e+01
1.537225e+02
5.853959e+01
1.544256e+02
5.924269e+01
6.110627e+01
1.417377e+01
6.145565e+01
1.452314e+01
1.546582e+02
5.900365e+01
1.554603e+02
5.980576e+01
6.160593e+01
1.442985e+01
6.200493e+01
1.482885e+01
1.557238e+02
5.953519e+01
1.566270e+02
6.043842e+01
6.217505e+01
1.472301e+01
6.262477e+01
1.517274e+01
1.569220e+02
6.013566e+01
1.579287e+02
6.114239e+01
6.281515e+01
1.505411e+01
6.331688e+01
1.555584e+01
1.582559e+02
6.080672e+01
1.593687e+02
6.191960e+01
6.352800e+01
1.542411e+01
6.408318e+01
1.597928e+01
1.597288e+02
6.155024e+01
1.609508e+02
6.277223e+01
6.431558e+01
1.583412e+01
6.492583e+01
1.644436e+01
1.613446e+02
6.236830e+01
1.626790e+02
6.370268e+01
6.518011e+01
1.628540e+01
6.584724e+01
1.695253e+01
1.631074e+02
6.326324e+01
1.645578e+02
6.471360e+01
6.612405e+01
1.677937e+01
6.685010e+01
1.750542e+01
1.650218e+02
6.423765e+01
1.665921e+02
6.580794e+01
6.715013e+01
1.731759e+01
6.793737e+01
1.810483e+01
1.670926e+02
6.529440e+01
1.687871e+02
6.698891e+01
6.826138e+01
1.790186e+01
6.911233e+01
1.875281e+01
1.693253e+02
6.643666e+01
1.711486e+02
6.826004e+01
6.946114e+01
1.853415e+01
7.037860e+01
1.945161e+01
1.717255e+02
6.766792e+01
1.736827e+02
6.962521e+01
7.075307e+01
1.921670e+01
7.174017e+01
2.020379e+01
1.742993e+02
6.899202e+01
1.763960e+02
7.108864e+01
7.214123e+01
1.995201e+01
7.320145e+01
2.101222e+01
1.770534e+02
7.041320e+01
1.792952e+02
7.265497e+01
7.363007e+01
2.074292e+01
7.476730e+01
2.188015e+01
1.799944e+02
7.193613e+01
1.823876e+02
7.432926e+01
7.522450e+01
2.159264e+01
7.644311e+01
2.281126e+01
1.831295e+02
7.356597e+01
1.856806e+02
7.611703e+01
7.692991e+01
2.250481e+01
7.823486e+01
2.380976e+01
1.864660e+02
7.530841e+01
1.891819e+02
7.802433e+01
7.875231e+01
2.348362e+01
8.014919e+01
2.488050e+01
1.900111e+02
7.716978e+01
1.928991e+02
8.005779e+01
8.069830e+01
2.453391e+01
8.219352e+01
2.602913e+01
1.937719e+02
7.915710e+01
1.968395e+02
8.222465e+01
8.277525e+01
2.566130e+01
8.437617e+01
2.726222e+01
1.977553e+02
8.127823e+01
2.010099e+02
8.453288e+01
8.499138e+01
2.687242e+01
8.670656e+01
2.858760e+01
2.019670e+02
8.354198e+01
2.054162e+02
8.699122e+01
8.735589e+01
2.817509e+01
8.919537e+01
3.001457e+01
2.064116e+02
8.595835e+01
2.100625e+02
8.960932e+01
8.987918e+01
2.957873e+01
9.185484e+01
3.155439e+01
2.110913e+02
8.853867e+01
2.149505e+02
9.239783e+01
9.257303e+01
3.109474e+01
9.469911e+01
3.322083e+01
2.160055e+02
9.129601e+01
2.200780e+02
9.536857e+01
9.545093e+01
3.273709e+01
9.774471e+01
3.503086e+01
2.211487e+02
9.424547e+01
2.254378e+02
9.853466e+01
9.852843e+01
3.452309e+01
1.010111e+02
3.700575e+01
2.265090e+02
9.740473e+01
2.310149e+02
1.019107e+02
1.018236e+02
3.647448e+01
1.045214e+02
3.917234e+01
2.320654e+02
1.007946e+02
2.367838e+02
1.055130e+02
1.053575e+02
3.861886e+01
1.083037e+02
4.156505e+01
2.377847e+02
1.044399e+02
2.427043e+02
1.093595e+02
1.091551e+02
4.099177e+01
1.123918e+02
4.422850e+01
2.436166e+02
1.083701e+02
2.487166e+02
1.134701e+02
1.132456e+02
4.363963e+01
1.168273e+02
4.722140e+01
2.494883e+02
1.126204e+02
2.547339e+02
1.178659e+02
1.176629e+02
4.662429e+01
1.216610e+02
5.062237e+01
2.552972e+02
1.172320e+02
2.606344e+02
1.225692e+02
1.224455e+02
5.002997e+01
1.269545e+02
5.453897e+01
2.609016e+02
1.222537e+02
2.662508e+02
1.276030e+02
1.276318e+02
5.397546e+01
1.327797e+02
5.912341e+01
2.661077e+02
1.277446e+02
2.713593e+02
1.329962e+02
1.332475e+02
5.863722e+01
1.392141e+02
6.460375e+01
2.706440e+02
1.337909e+02
2.756690e+02
1.388159e+02
1.392648e+02
6.430193e+01
1.463245e+02
7.136164e+01
2.740901e+02
1.405870e+02
2.788269e+02
1.453238e+02
1.454896e+02
7.151883e+01
1.541478e+02
8.017706e+01
2.755880e+02
1.488211e+02
2.804871e+02
1.537203e+02
1.512411e+02
8.183210e+01
1.626672e+02
9.325816e+01
2.746683e+02
1.603295e+02
2.807267e+02
1.663880e+02
1.573761e+02
1.006142e+02
1.699777e+02
1.132157e+02
2.766688e+02
1.702374e+02
2.823428e+02
1.759114e+02
1.675373e+02
1.129378e+02
1.755987e+02
1.209993e+02
2.811958e+02
1.769671e+02
2.880191e+02
1.837905e+02
1.753701e+02
1.210693e+02
1.828897e+02
1.285889e+02
2.880928e+02
1.836057e+02
2.957185e+02
1.912314e+02
1.832558e+02
1.283052e+02
1.903145e+02
1.353640e+02
2.965287e+02
1.903128e+02
3.046740e+02
1.984581e+02
1.910741e+02
1.348331e+02
1.977024e+02
1.414614e+02
3.059385e+02
1.970612e+02
3.143517e+02
2.054744e+02
1.987231e+02
1.407607e+02
2.049363e+02
1.469740e+02
3.159001e+02
2.037674e+02
3.243657e+02
2.122330e+02
2.061291e+02
1.461612e+02
2.119347e+02
1.519668e+02
3.260817e+02
2.103387e+02
3.344185e+02
2.186755e+02
2.132283e+02
1.510891e+02
2.186279e+02
1.564887e+02
3.362160e+02
2.166888e+02
3.442737e+02
2.247465e+02
2.199647e+02
1.555848e+02
2.249563e+02
1.605763e+02
3.460855e+02
2.227430e+02
3.537407e+02
2.303981e+02
2.262899e+02
1.596776e+02
2.308692e+02
1.642569e+02
3.555134e+02
2.284381e+02
3.626652e+02
2.355900e+02
2.321625e+02
1.633881e+02
2.363245e+02
1.675501e+02
3.643556e+02
2.337223e+02
3.709226e+02
2.402893e+02
2.375482e+02
1.667306e+02
2.412875e+02
1.704699e+02
3.724956e+02
2.385529e+02
3.784122e+02
2.444696e+02
2.424186e+02
1.697148e+02
2.457301e+02
1.730263e+02
3.798396e+02
2.428956e+02
3.850539e+02
2.481099e+02
2.467505e+02
1.723470e+02
2.496295e+02
1.752260e+02
3.863132e+02
2.467228e+02
3.907842e+02
2.511939e+02
2.505253e+02
1.746311e+02
2.529678e+02
1.770737e+02
3.918575e+02
2.500128e+02
3.955536e+02
2.537089e+02
2.537283e+02
1.765699e+02
2.557311e+02
1.785727e+02
3.964272e+02
2.527484e+02
3.993246e+02
2.556458e+02
2.563480e+02
1.781647e+02
2.579084e+02
1.797251e+02
3.999882e+02
2.549167e+02
4.020694e+02
2.569979e+02
2.583759e+02
1.794164e+02
2.594919e+02
1.805324e+02
4.025157e+02
2.565078e+02
4.037689e+02
2.577611e+02
2.598058e+02
1.803254e+02
2.604759e+02
1.809955e+02
4.039932e+02
2.575148e+02
4.044117e+02
2.579333e+02
2.606335e+02
1.808916e+02
2.608569e+02
1.811151e+02
</DataArray>
<DataArray type="Float32" Name="V2" format="ascii">
4.418921e-01
4.687394e-01
4.426853e-01
4.695184e-01
4.687394e-01
5.003125e-01
4.695184e-01
5.010793e-01
4.426853e-01
4.695184e-01
4.450541e-01
4.718552e-01
4.695184e-01
5.010793e-01
4.718552e-01
5.033786e-01
4.450541e-01
4.718552e-01
4.489982e-01
4.757460e-01
4.718552e-01
5.033786e-01
4.757460e-01
5.072071e-01
4.489982e-01
4.757460e-01
4.545120e-01
4.811852e-01
4.757460e-01
5.072071e-01
4.811852e-01
5.125591e-01
4.545120e-01
4.811852e-01
4.615875e-01
4.881650e-01
4.811852e-01
5.125591e-01
4.881650e-01
5.194271e-01
4.615875e-01
4.881650e-01
4.702144e-01
4.966752e-01
4.881650e-01
5.194271e-01
4.966752e-01
5.278010e-01
4.702144e-01
4.966752e-01
4.803802e-01
5.067035e-01
4.966752e-01
5.278010e-01
5.067035e-01
5.376686e-01
4.803802e-01
5.067035e-01
4.920702e-01
5.182354e-01
5.067035e-01
5.376686e-01
5.182354e-01
5.490158e-01
4.920702e-01
5.182354e-01
5.052673e-01
5.312542e-01
5.182354e-01
5.490158e-01
5.312542e-01
5.618260e-01
5.052673e-01
5.312542e-01
5.199524e-01
5.457407e-01
5.312542e-01
5.618260e-01
5.457407e-01
5.760805e-01
5.199524e-01
5.457407e-01
5.361040e-01
5.616741e-01
5.457407e-01
5.760805e-01
5.616741e-01
5.917586e-01
5.361040e-01
5.616741e-01
5.536986e-01
5.790309e-01
5.616741e-01
5.917586e-01
5.790309e-01
6.088375e-01
5.536986e-01
5.790309e-01
5.727103e-01
5.977858e-01
5.790309e-01
6.088375e-01
5.977858e-01
6.272920e-01
5.727103e-01
5.977858e-01
5.931113e-01
6.179113e-01
5.977858e-01
6.272920e-01
6.179113e-01
6.470953e-01
5.931113e-01
6.179113e-01
6.148716e-01
6.393778e-01
6.179113e-01
6.470953e-01
6.393778e-01
6.682181e-01
6.148716e-01
6.393778e-01
6.379590e-01
6.621537e-01
6.393778e-01
6.682181e-01
6.621537e-01
6.906294e-01
6.379590e-01
6.621537e-01
6.623395e-01
6.862054e-01
6.621537e-01
6.906294e-01
6.862054e-01
7.142961e-01
6.623395e-01
6.862054e-01
6.879768e-01
7.114972e-01
6.862054e-01
7.142961e-01
7.114972e-01
7.391831e-01
6.879768e-01
7.114972e-01
7.148327e-01
7.379915e-01
7.114972e-01
7.391831e-01
7.379915e-01
7.652536e-01
7.148327e-01
7.379915e-01
7.428672e-01
7.656488e-01
7.379915e-01
7.652536e-01
7.656488e-01
7.924687e-01
7.428672e-01
7.656488e-01
7.720380e-01
7.944278e-01
7.656488e-01
7.924687e-01
7.944278e-01
8.207878e-01
7.720380e-01
7.944278e-01
8.023013e-01
8.242852e-01
7.944278e-01
8.207878e-01
8.242852e-01
8.501686e-01
8.023013e-01
8.242852e-01
8.336110e-01
8.551761e-01
8.242852e-01
8.501686e-01
8.551761e-01
8.805669e-01
8.336110e-01
8.551761e-01
8.659196e-01
8.870538e-01
8.551761e-01
8.805669e-01
8.870538e-01
9.119370e-01
8.659196e-01
8.870538e-01
8.991773e-01
9.198698e-01
8.870538e-01
9.119370e-01
9.198698e-01
9.442318e-01
8.991773e-01
9.198698e-01
9.333330e-01
9.535741e-01
9.198698e-01
9.442318e-01
9.535741e-01
9.774024e-01
9.333330e-01
9.535741e-01
9.683332e-01
9.881152e-01
9.535741e-01
9.774024e-01
9.881152e-01
1.011399e+00
9.683332e-01
9.881152e-01
1.004123e+00
1.023440e+00
9.881152e-01
1.011399e+00
1.023440e+00
1.046170e+00
1.004123e+00
1.023440e+00
1.040646e+00
1.059494e+00
1.023440e+00
1.046170e+00
1.059494e+00
1.081663e+00
1.040646e+00
1.059494e+00
1.077843e+00
1.096222e+00
1.059494e+00
1.081663e+00
1.096222e+00
1.117825e+00
1.077843e+00
1.096222e+00
1.115653e+00
1.133566e+00
1.096222e+00
1.117825e+00
1.133566e+00
1.154603e+00
1.115653e+00
1.133566e+00
1.154014e+00
1.171468e+00
1.133566e+00
1.154603e+00
1.171468e+00
1.191942e+00
1.154014e+00
1.171468e+00
1.192861e+00
1.209869e+00
1.171468e+00
1.191942e+00
1.209869e+00
1.229788e+00
1.192861e+00
1.209869e+00
1.232126e+00
1.248710e+00
1.209869e+00
1.229788e+00
1.248710e+00
1.268089e+00
1.232126e+00
1.248710e+00
1.271738e+00
1.287930e+00
1.248710e+00
1.268089e+00
1.287930e+00
1.306791e+00
1.271738e+00
1.287930e+00
1.311624e+00
1.327466e+00
1.287930e+00
1.306791e+00
1.327466e+00
1.345846e+00
1.311624e+00
1.327466e+00
1.351706e+00
1.367258e+00
1.327466e+00
1.345846e+00
1.367258e+00
1.385207e+00
1.351706e+00
1.367258e+00
1.391900e+00
1.407241e+00
1.367258e+00
1.385207e+00
1.407241e+00
1.424833e+00
1.391900e+00
1.407241e+00
1.432116e+00
1.447353e+00
1.407241e+00
1.424833e+00
1.447353e+00
1.464690e+00
1.432116e+00
1.447353e+00
1.472253e+00
1.487523e+00
1.447353e+00
1.464690e+00
1.487523e+00
1.504757e+00
1.472253e+00
1.487523e+00
1.512188e+00
1.527669e+00
1.487523e+00
1.504757e+00
1.527669e+00
1.545027e+00
1.512188e+00
1.527669e+00
1.551753e+00
1.567665e+00
1.527669e+00
1.545027e+00
1.567665e+00
1.585499e+00
1.551753e+00
1.567665e+00
1.590678e+00
1.607217e+00
1.567665e+00
1.585499e+00
1.607217e+00
1.625989e+00
1.590678e+00
1.607217e+00
1.628401e+00
1.645330e+00
1.607217e+00
1.625989e+00
1.645330e+00
1.664319e+00
1.628401e+00
1.645330e+00
1.663706e+00
1.680873e+00
1.645330e+00
1.664319e+00
1.680873e+00
1.700150e+00
1.663706e+00
1.680873e+00
1.696538e+00
1.714186e+00
1.680873e+00
1.700150e+00
1.714186e+00
1.733954e+00
1.696538e+00
1.714186e+00
1.726986e+00
1.745217e+00
1.714186e+00
1.733954e+00
1.745217e+00
1.765568e+00
1.726986e+00
1.745217e+00
1.755129e+00
1.773966e+00
1.745217e+00
1.765568e+00
1.773966e+00
1.794930e+00
1.755129e+00
1.773966e+00
1.781044e+00
1.800464e+00
1.773966e+00
1.794930e+00
1.800464e+00
1.822032e+00
1.781044e+00
1.800464e+00
1.804804e+00
1.824761e+00
1.800464e+00
1.822032e+00
1.824761e+00
1.846898e+00
1.804804e+00
1.824761e+00
1.826483e+00
1.846920e+00
1.824761e+00
1.846898e+00
1.846920e+00
1.869576e+00
1.826483e+00
1.846920e+00
1.846151e+00
1.867009e+00
1.846920e+00
1.869576e+00
1.867009e+00
1.890127e+00
1.846151e+00
1.867009e+00
1.863875e+00
1.885095e+00
1.867009e+00
1.890127e+00
1.885095e+00
1.908617e+00
1.863875e+00
1.885095e+00
1.879719e+00
1.901244e+00
1.885095e+00
1.908617e+00
1.901244e+00
1.925115e+00
1.879719e+00
1.901244e+00
1.893738e+00
1.915520e+00
1.901244e+00
1.925115e+00
1.915520e+00
1.939686e+00
1.893738e+00
1.915520e+00
1.905985e+00
1.927979e+00
1.915520e+00
1.939686e+00
1.927979e+00
1.952391e+00
1.905985e+00
1.927979e+00
1.916506e+00
1.938673e+00
1.927979e+00
1.952391e+00
1.938673e+00
1.963288e+00
1.916506e+00
1.938673e+00
1.925341e+00
1.947645e+00
1.938673e+00
1.963288e+00
1.947645e+00
1.972424e+00
1.925341e+00
1.947645e+00
1.932524e+00
1.954935e+00
1.947645e+00
1.972424e+00
1.954935e+00
1.979841e+00
1.932524e+00
1.954935e+00
1.938082e+00
1.960572e+00
1.954935e+00
1.979841e+00
1.960572e+00
1.985575e+00
1.938082e+00
1.960572e+00
1.942037e+00
1.964582e+00
1.960572e+00
1.985575e+00
1.964582e+00
1.989651e+00
1.942037e+00
1.964582e+00
1.944404e+00
1.966981e+00
1.964582e+00
1.989651e+00
1.966981e+00
1.992089e+00
1.944404e+00
1.966981e+00
1.945192e+00
1.967780e+00
1.966981e+00
1.992089e+00
1.967780e+00
1.992901e+00
</DataArray>
<DataArray type="Float32" Name="V3" format="ascii">
0.000000e+00
0.000000e+00
2.597443e-02
2.529979e-02
0.000000e+00
0.000000e+00
2.529979e-02
2.451003e-02
2.597443e-02
2.529979e-02
5.188499e-02
5.053640e-02
2.529979e-02
2.451003e-02
5.053640e-02
4.895766e-02
5.188499e-02
5.053640e-02
7.766748e-02
7.564649e-02
5.053640e-02
4.895766e-02
7.564649e-02
7.328061e-02
7.766748e-02
7.564649e-02
1.032581e-01
1.005670e-01
7.564649e-02
7.328061e-02
1.005670e-01
9.741666e-02
1.032581e-01
1.005670e-01
1.285932e-01
1.252351e-01
1.005670e-01
9.741666e-02
1.252351e-01
1.213039e-01
1.285932e-01
1.252351e-01
1.536095e-01
1.495882e-01
1.252351e-01
1.213039e-01
1.495882e-01
1.448805e-01
1.536095e-01
1.495882e-01
1.782440e-01
1.735642e-01
1.495882e-01
1.448805e-01
1.735642e-01
1.680853e-01
1.782440e-01
1.735642e-01
2.024343e-01
1.971011e-01
1.735642e-01
1.680853e-01
1.971011e-01
1.908574e-01
2.024343e-01
1.971011e-01
2.261183e-01
2.201379e-01
1.971011e-01
1.908574e-01
2.201379e-01
2.131363e-01
2.261183e-01
2.201379e-01
2.492346e-01
2.426139e-01
2.201379e-01
2.131363e-01
2.426139e-01
2.348623e-01
2.492346e-01
2.426139e-01
2.717226e-01
2.644689e-01
2.426139e-01
2.348623e-01
2.644689e-01
2.559761e-01
2.717226e-01
2.644689e-01
2.935221e-01
2.856437e-01
2.644689e-01
2.559761e-01
2.856437e-01
2.764192e-01
2.935221e-01
2.856437e-01
3.145740e-01
3.060799e-01
2.856437e-01
2.764192e-01
3.060799e-01
2.961340e-01
3.145740e-01
3.060799e-01
3.348198e-01
3.257196e-01
3.060799e-01
2.961340e-01
3.257196e-01
3.150636e-01
3.348198e-01
3.257196e-01
3.542024e-01
3.445062e-01
3.257196e-01
3.150636e-01
3.445062e-01
3.331521e-01
3.542024e-01
3.445062e-01
3.726651e-01
3.623841e-01
3.445062e-01
3.331521e-01
3.623841e-01
3.503445e-01
3.726651e-01
3.623841e-01
3.901527e-01
3.792984e-01
3.623841e-01
3.503445e-01
3.792984e-01
3.665870e-01
3.901527e-01
3.792984e-01
4.066110e-01
3.951957e-01
3.792984e-01
3.665870e-01
3.951957e-01
3.818268e-01
4.066110e-01
3.951957e-01
4.219871e-01
4.100237e-01
3.951957e-01
3.818268e-01
4.100237e-01
3.960124e-01
4.219871e-01
4.100237e-01
4.362291e-01
4.237313e-01
4.100237e-01
3.960124e-01
4.237313e-01
4.090935e-01
4.362291e-01
4.237313e-01
4.492868e-01
4.362688e-01
4.237313e-01
4.090935e-01
4.362688e-01
4.210212e-01
4.492868e-01
4.362688e-01
4.611110e-01
4.475879e-01
4.362688e-01
4.210212e-01
4.475879e-01
4.317479e-01
4.611110e-01
4.475879e-01
4.716543e-01
4.576416e-01
4.475879e-01
4.317479e-01
4.576416e-01
4.412278e-01
4.716543e-01
4.576416e-01
4.808705e-01
4.663846e-01
4.576416e-01
4.412278e-01
4.663846e-01
4.494163e-01
4.808705e-01
4.663846e-01
4.887149e-01
4.737732e-01
4.663846e-01
4.494163e-01
4.737732e-01
4.562707e-01
4.887149e-01
4.737732e-01
4.951447e-01
4.797652e-01
4.737732e-01
4.562707e-01
4.797652e-01
4.617500e-01
4.951447e-01
4.797652e-01
5.001184e-01
4.843202e-01
4.797652e-01
4.617500e-01
4.843202e-01
4.658150e-01
5.001184e-01
4.843202e-01
5.035962e-01
4.873994e-01
4.843202e-01
4.658150e-01
4.873994e-01
4.684284e-01
5.035962e-01
4.873994e-01
5.055399e-01
4.889660e-01
4.873994e-01
4.684284e-01
4.889660e-01
4.695552e-01
5.055399e-01
4.889660e-01
5.059130e-01
4.889849e-01
4.889660e-01
4.695552e-01
4.889849e-01
4.691622e-01
5.059130e-01
4.889849e-01
5.046807e-01
4.874230e-01
4.889849e-01
4.691622e-01
4.874230e-01
4.672189e-01
5.046807e-01
4.874230e-01
5.018096e-01
4.842489e-01
4.874230e-01
4.672189e-01
4.842489e-01
4.636968e-01
5.018096e-01
4.842489e-01
4.972679e-01
4.794334e-01
4.842489e-01
4.636968e-01
4.794334e-01
4.585704e-01
4.972679e-01
4.794334e-01
4.910254e-01
4.729491e-01
4.794334e-01
4.585704e-01
4.729491e-01
4.518168e-01
4.910254e-01
4.729491e-01
4.830531e-01
4.647707e-01
4.729491e-01
4.518168e-01
4.647707e-01
4.434165e-01
4.830531e-01
4.647707e-01
4.733235e-01
4.548746e-01
4.647707e-01
4.434165e-01
4.548746e-01
4.333529e-01
4.733235e-01
4.548746e-01
4.618101e-01
4.432393e-01
4.548746e-01
4.333529e-01
4.432393e-01
4.216134e-01
4.618101e-01
4.432393e-01
4.484876e-01
4.298447e-01
4.432393e-01
4.216134e-01
4.298447e-01
4.081898e-01
4.484876e-01
4.298447e-01
4.333319e-01
4.146726e-01
4.298447e-01
4.081898e-01
4.146726e-01
3.930787e-01
4.333319e-01
4.146726e-01
4.163212e-01
3.977073e-01
4.146726e-01
3.930787e-01
3.977073e-01
3.762833e-01
4.163212e-01
3.977073e-01
3.974405e-01
3.789387e-01
3.977073e-01
3.762833e-01
3.789387e-01
3.578136e-01
3.974405e-01
3.789387e-01
3.767012e-01
3.583803e-01
3.789387e-01
3.578136e-01
3.583803e-01
3.376771e-01
3.767012e-01
3.583803e-01
3.542154e-01
3.361225e-01
3.583803e-01
3.376771e-01
3.361225e-01
3.157784e-01
3.542154e-01
3.361225e-01
3.308612e-01
3.130935e-01
3.361225e-01
3.157784e-01
3.130935e-01
2.928210e-01
3.308612e-01
3.130935e-01
3.085988e-01
2.914967e-01
3.130935e-01
2.928210e-01
2.914967e-01
2.722294e-01
3.085988e-01
2.914967e-01
2.875354e-01
2.712263e-01
2.914967e-01
2.722294e-01
2.712263e-01
2.530371e-01
2.875354e-01
2.712263e-01
2.675018e-01
2.520932e-01
2.712263e-01
2.530371e-01
2.520932e-01
2.350223e-01
2.675018e-01
2.520932e-01
2.483246e-01
2.338932e-01
2.520932e-01
2.350223e-01
2.338932e-01
2.179723e-01
2.483246e-01
2.338932e-01
2.298526e-01
2.164474e-01
2.338932e-01
2.179723e-01
2.164474e-01
2.016976e-01
2.298526e-01
2.164474e-01
2.119555e-01
1.996027e-01
2.164474e-01
2.016976e-01
1.996027e-01
1.860327e-01
2.119555e-01
1.996027e-01
1.945233e-01
1.832309e-01
1.996027e-01
1.860327e-01
1.832309e-01
1.708376e-01
1.945233e-01
1.832309e-01
1.774637e-01
1.672263e-01
1.832309e-01
1.708376e-01
1.672263e-01
1.559967e-01
1.774637e-01
1.672263e-01
1.607005e-01
1.515030e-01
1.672263e-01
1.559967e-01
1.515030e-01
1.414164e-01
1.607005e-01
1.515030e-01
1.441707e-01
1.359919e-01
1.515030e-01
1.414164e-01
1.359919e-01
1.270228e-01
1.441707e-01
1.359919e-01
1.278230e-01
1.206382e-01
1.359919e-01
1.270228e-01
1.206382e-01
1.127585e-01
1.278230e-01
1.206382e-01
1.116160e-01
1.053991e-01
1.206382e-01
1.127585e-01
1.053991e-01
9.857988e-02
1.116160e-01
1.053991e-01
9.551618e-02
9.024171e-02
1.053991e-01
9.857988e-02
9.024171e-02
8.445516e-02
9.551618e-02
9.024171e-02
7.949693e-02
7.514118e-02
9.024171e-02
8.445516e-02
7.514118e-02
7.036161e-02
7.949693e-02
7.514118e-02
6.353706e-02
6.007910e-02
7.514118e-02
7.036161e-02
6.007910e-02
5.628397e-02
6.353706e-02
6.007910e-02
4.761976e-02
4.504213e-02
6.007910e-02
5.628397e-02
4.504213e-02
4.221271e-02
4.761976e-02
4.504213e-02
3.173157e-02
3.002079e-02
4.504213e-02
4.221271e-02
3.002079e-02
2.814267e-02
3.173157e-02
3.002079e-02
1.586146e-02
1.500838e-02
3.002079e-02
2.814267e-02
1.500838e-02
1.407179e-02
1.586146e-02
1.500838e-02
0.000000e+00
0.000000e+00
1.500838e-02
1.407179e-02
0.000000e+00
0.000000e+00
</DataArray>
<DataArray type="Float32" Name="V4" format="ascii">
8.500000e-01
9.250000e-01
8.500000e-01
9.250000e-01
9.250000e-01
1.000000e+00