<?xml version="1.0"?>
<VTKFile type="UnstructuredGrid" version="0.1" byte_order="LittleEndian" compressor="vtkZLibDataCompressor">
<UnstructuredGrid>
<Piece NumberOfPoints="504" NumberOfCells="126">
<Points>
<DataArray type="Float32" NumberOfComponents="3" format="ascii">
0.000000e+00 4.377832e-01 0.000000e+00
0.000000e+00 4.640780e-01 0.000000e+00
3.738953e-02 4.377913e-01 0.000000e+00
3.738456e-02 4.640803e-01 0.000000e+00
0.000000e+00 4.640780e-01 0.000000e+00
0.000000e+00 4.950000e-01 0.000000e+00
3.738456e-02 4.640803e-01 0.000000e+00
3.738223e-02 4.950000e-01 0.000000e+00
3.738953e-02 4.377913e-01 0.000000e+00
3.738456e-02 4.640803e-01 0.000000e+00
7.477806e-02 4.378055e-01 0.000000e+00
7.476803e-02 4.640879e-01 0.000000e+00
3.738456e-02 4.640803e-01 0.000000e+00
3.738223e-02 4.950000e-01 0.000000e+00
7.476803e-02 4.640879e-01 0.000000e+00
7.476328e-02 4.950000e-01 0.000000e+00
7.477806e-02 4.378055e-01 0.000000e+00
7.476803e-02 4.640879e-01 0.000000e+00
1.121641e-01 4.378290e-01 0.000000e+00
1.121491e-01 4.641007e-01 0.000000e+00
7.476803e-02 4.640879e-01 0.000000e+00
7.476328e-02 4.950000e-01 0.000000e+00
1.121491e-01 4.641007e-01 0.000000e+00
1.121420e-01 4.950000e-01 0.000000e+00
1.121641e-01 4.378290e-01 0.000000e+00
1.121491e-01 4.641007e-01 0.000000e+00
1.495466e-01 4.378619e-01 0.000000e+00
1.495266e-01 4.641185e-01 0.000000e+00
1.121491e-01 4.641007e-01 0.000000e+00
1.121420e-01 4.950000e-01 0.000000e+00
1.495266e-01 4.641185e-01 0.000000e+00
1.495171e-01 4.950000e-01 0.000000e+00
1.495466e-01 4.378619e-01 0.000000e+00
1.495266e-01 4.641185e-01 0.000000e+00
1.869241e-01 4.379042e-01 0.000000e+00
1.868992e-01 4.641414e-01 0.000000e+00
1.495266e-01 4.641185e-01 0.000000e+00
1.495171e-01 4.950000e-01 0.000000e+00
1.868992e-01 4.641414e-01 0.000000e+00
1.868875e-01 4.950000e-01 0.000000e+00
1.869241e-01 4.379042e-01 0.000000e+00
1.868992e-01 4.641414e-01 0.000000e+00
2.242956e-01 4.379559e-01 0.000000e+00
2.242659e-01 4.641694e-01 0.000000e+00
1.868992e-01 4.641414e-01 0.000000e+00
1.868875e-01 4.950000e-01 0.000000e+00
2.242659e-01 4.641694e-01 0.000000e+00
2.242519e-01 4.950000e-01 0.000000e+00
2.242956e-01 4.379559e-01 0.000000e+00
2.242659e-01 4.641694e-01 0.000000e+00
2.616597e-01 4.380168e-01 0.000000e+00
2.616253e-01 4.642024e-01 0.000000e+00
2.242659e-01 4.641694e-01 0.000000e+00
2.242519e-01 4.950000e-01 0.000000e+00
2.616253e-01 4.642024e-01 0.000000e+00
2.616091e-01 4.950000e-01 0.000000e+00
2.616597e-01 4.380168e-01 0.000000e+00
2.616253e-01 4.642024e-01 0.000000e+00
2.990152e-01 4.380870e-01 0.000000e+00
2.989761e-01 4.642404e-01 0.000000e+00
2.616253e-01 4.642024e-01 0.000000e+00
2.616091e-01 4.950000e-01 0.000000e+00
2.989761e-01 4.642404e-01 0.000000e+00
2.989580e-01 4.950000e-01 0.000000e+00
2.990152e-01 4.380870e-01 0.000000e+00
2.989761e-01 4.642404e-01 0.000000e+00
3.363608e-01 4.381664e-01 0.000000e+00
3.363172e-01 4.642834e-01 0.000000e+00
2.989761e-01 4.642404e-01 0.000000e+00
2.989580e-01 4.950000e-01 0.000000e+00
3.363172e-01 4.642834e-01 0.000000e+00
3.362971e-01 4.950000e-01 0.000000e+00
3.363608e-01 4.381664e-01 0.000000e+00
3.363172e-01 4.642834e-01 0.000000e+00
3.736951e-01 4.382550e-01 0.000000e+00
3.736472e-01 4.643314e-01 0.000000e+00
3.363172e-01 4.642834e-01 0.000000e+00
3.362971e-01 4.950000e-01 0.000000e+00
3.736472e-01 4.643314e-01 0.000000e+00
3.736253e-01 4.950000e-01 0.000000e+00
3.736951e-01 4.382550e-01 0.000000e+00
3.736472e-01 4.643314e-01 0.000000e+00
4.110169e-01 4.383526e-01 0.000000e+00
4.109648e-01 4.643843e-01 0.000000e+00
3.736472e-01 4.643314e-01 0.000000e+00
3.736253e-01 4.950000e-01 0.000000e+00
4.109648e-01 4.643843e-01 0.000000e+00
4.109412e-01 4.950000e-01 0.000000e+00
4.110169e-01 4.383526e-01 0.000000e+00
4.109648e-01 4.643843e-01 0.000000e+00
4.483247e-01 4.384592e-01 0.000000e+00
4.482687e-01 4.644420e-01 0.000000e+00
4.109648e-01 4.643843e-01 0.000000e+00
4.109412e-01 4.950000e-01 0.000000e+00
4.482687e-01 4.644420e-01 0.000000e+00
4.482436e-01 4.950000e-01 0.000000e+00
4.483247e-01 4.384592e-01 0.000000e+00
4.482687e-01 4.644420e-01 0.000000e+00
4.856172e-01 4.385748e-01 0.000000e+00
4.855574e-01 4.645046e-01 0.000000e+00
4.482687e-01 4.644420e-01 0.000000e+00
4.482436e-01 4.950000e-01 0.000000e+00
4.855574e-01 4.645046e-01 0.000000e+00
4.855311e-01 4.950000e-01 0.000000e+00
4.856172e-01 4.385748e-01 0.000000e+00
4.855574e-01 4.645046e-01 0.000000e+00
5.228928e-01 4.386992e-01 0.000000e+00
5.228296e-01 4.645721e-01 0.000000e+00
4.855574e-01 4.645046e-01 0.000000e+00
4.855311e-01 4.950000e-01 0.000000e+00
5.228296e-01 4.645721e-01 0.000000e+00
5.228023e-01 4.950000e-01 0.000000e+00
5.228928e-01 4.386992e-01 0.000000e+00
5.228296e-01 4.645721e-01 0.000000e+00
5.601501e-01 4.388324e-01 0.000000e+00
5.600839e-01 4.646443e-01 0.000000e+00
5.228296e-01 4.645721e-01 0.000000e+00
5.228023e-01 4.950000e-01 0.000000e+00
5.600839e-01 4.646443e-01 0.000000e+00
5.600558e-01 4.950000e-01 0.000000e+00
5.601501e-01 4.388324e-01 0.000000e+00
5.600839e-01 4.646443e-01 0.000000e+00
5.973875e-01 4.389743e-01 0.000000e+00
5.973186e-01 4.647212e-01 0.000000e+00
5.600839e-01 4.646443e-01 0.000000e+00
5.600558e-01 4.950000e-01 0.000000e+00
5.973186e-01 4.647212e-01 0.000000e+00
5.972903e-01 4.950000e-01 0.000000e+00
5.973875e-01 4.389743e-01 0.000000e+00
5.973186e-01 4.647212e-01 0.000000e+00
6.346034e-01 4.391247e-01 0.000000e+00
6.345324e-01 4.648029e-01 0.000000e+00
5.973186e-01 4.647212e-01 0.000000e+00
5.972903e-01 4.950000e-01 0.000000e+00
6.345324e-01 4.648029e-01 0.000000e+00
6.345042e-01 4.950000e-01 0.000000e+00
6.346034e-01 4.391247e-01 0.000000e+00
6.345324e-01 4.648029e-01 0.000000e+00
6.717962e-01 4.392836e-01 0.000000e+00
6.717237e-01 4.648891e-01 0.000000e+00
6.345324e-01 4.648029e-01 0.000000e+00
6.345042e-01 4.950000e-01 0.000000e+00
6.717237e-01 4.648891e-01 0.000000e+00
6.716962e-01 4.950000e-01 0.000000e+00
6.717962e-01 4.392836e-01 0.000000e+00
6.717237e-01 4.648891e-01 0.000000e+00
7.089641e-01 4.394508e-01 0.000000e+00
7.088907e-01 4.649800e-01 0.000000e+00
6.717237e-01 4.648891e-01 0.000000e+00
6.716962e-01 4.950000e-01 0.000000e+00
7.088907e-01 4.649800e-01 0.000000e+00
7.088648e-01 4.950000e-01 0.000000e+00
7.089641e-01 4.394508e-01 0.000000e+00
7.088907e-01 4.649800e-01 0.000000e+00
7.461052e-01 4.396263e-01 0.000000e+00
7.460320e-01 4.650754e-01 0.000000e+00
7.088907e-01 4.649800e-01 0.000000e+00
7.088648e-01 4.950000e-01 0.000000e+00
7.460320e-01 4.650754e-01 0.000000e+00
7.460084e-01 4.950000e-01 0.000000e+00
7.461052e-01 4.396263e-01 0.000000e+00
7.460320e-01 4.650754e-01 0.000000e+00
7.832176e-01 4.398100e-01 0.000000e+00
7.831457e-01 4.651754e-01 0.000000e+00
7.460320e-01 4.650754e-01 0.000000e+00
7.460084e-01 4.950000e-01 0.000000e+00
7.831457e-01 4.651754e-01 0.000000e+00
7.831256e-01 4.950000e-01 0.000000e+00
7.832176e-01 4.398100e-01 0.000000e+00
7.831457e-01 4.651754e-01 0.000000e+00
8.202993e-01 4.400017e-01 0.000000e+00
8.202302e-01 4.652799e-01 0.000000e+00
7.831457e-01 4.651754e-01 0.000000e+00
7.831256e-01 4.950000e-01 0.000000e+00
8.202302e-01 4.652799e-01 0.000000e+00
8.202149e-01 4.950000e-01 0.000000e+00
8.202993e-01 4.400017e-01 0.000000e+00
8.202302e-01 4.652799e-01 0.000000e+00
8.573482e-01 4.402013e-01 0.000000e+00
8.572836e-01 4.653889e-01 0.000000e+00
8.202302e-01 4.652799e-01 0.000000e+00
8.202149e-01 4.950000e-01 0.000000e+00
8.572836e-01 4.653889e-01 0.000000e+00
8.572750e-01 4.950000e-01 0.000000e+00
8.573482e-01 4.402013e-01 0.000000e+00
8.572836e-01 4.653889e-01 0.000000e+00
8.943619e-01 4.404087e-01 0.000000e+00
8.943041e-01 4.655023e-01 0.000000e+00
8.572836e-01 4.653889e-01 0.000000e+00
8.572750e-01 4.950000e-01 0.000000e+00
8.943041e-01 4.655023e-01 0.000000e+00
8.943043e-01 4.950000e-01 0.000000e+00
8.943619e-01 4.404087e-01 0.000000e+00
8.943041e-01 4.655023e-01 0.000000e+00
9.313379e-01 4.406238e-01 0.000000e+00
9.312898e-01 4.656204e-01 0.000000e+00
8.943041e-01 4.655023e-01 0.000000e+00
8.943043e-01 4.950000e-01 0.000000e+00
9.312898e-01 4.656204e-01 0.000000e+00
9.313018e-01 4.950000e-01 0.000000e+00
9.313379e-01 4.406238e-01 0.000000e+00
9.312898e-01 4.656204e-01 0.000000e+00
9.682735e-01 4.408466e-01 0.000000e+00
9.682387e-01 4.657430e-01 0.000000e+00
9.312898e-01 4.656204e-01 0.000000e+00
9.313018e-01 4.950000e-01 0.000000e+00
9.682387e-01 4.657430e-01 0.000000e+00
9.682661e-01 4.950000e-01 0.000000e+00
9.682735e-01 4.408466e-01 0.000000e+00
9.682387e-01 4.657430e-01 0.000000e+00
1.005166e+00 4.410769e-01 0.000000e+00
1.005149e+00 4.658702e-01 0.000000e+00
9.682387e-01 4.657430e-01 0.000000e+00
9.682661e-01 4.950000e-01 0.000000e+00
1.005149e+00 4.658702e-01 0.000000e+00
1.005196e+00 4.950000e-01 0.000000e+00
1.005166e+00 4.410769e-01 0.000000e+00
1.005149e+00 4.658702e-01 0.000000e+00
1.042011e+00 4.413147e-01 0.000000e+00
1.042019e+00 4.660023e-01 0.000000e+00
1.005149e+00 4.658702e-01 0.000000e+00
1.005196e+00 4.950000e-01 0.000000e+00
1.042019e+00 4.660023e-01 0.000000e+00
1.042092e+00 4.950000e-01 0.000000e+00
1.042011e+00 4.413147e-01 0.000000e+00
1.042019e+00 4.660023e-01 0.000000e+00
1.078806e+00 4.415600e-01 0.000000e+00
1.078846e+00 4.661394e-01 0.000000e+00
1.042019e+00 4.660023e-01 0.000000e+00
1.042092e+00 4.950000e-01 0.000000e+00
1.078846e+00 4.661394e-01 0.000000e+00
1.078953e+00 4.950000e-01 0.000000e+00
1.078806e+00 4.415600e-01 0.000000e+00
1.078846e+00 4.661394e-01 0.000000e+00
1.115547e+00 4.418127e-01 0.000000e+00
1.115628e+00 4.662817e-01 0.000000e+00
1.078846e+00 4.661394e-01 0.000000e+00
1.078953e+00 4.950000e-01 0.000000e+00
1.115628e+00 4.662817e-01 0.000000e+00
1.115779e+00 4.950000e-01 0.000000e+00
1.115547e+00 4.418127e-01 0.000000e+00
1.115628e+00 4.662817e-01 0.000000e+00
1.152228e+00 4.420729e-01 0.000000e+00
1.152365e+00 4.664298e-01 0.000000e+00
1.115628e+00 4.662817e-01 0.000000e+00
1.115779e+00 4.950000e-01 0.000000e+00
1.152365e+00 4.664298e-01 0.000000e+00
1.152571e+00 4.950000e-01 0.000000e+00
1.152228e+00 4.420729e-01 0.000000e+00
[...]
<PointData>
<DataArray type="Float32" Name="V1" format="ascii">
1.636666e+02
6.254131e+01
1.637282e+02
6.260287e+01
6.508466e+01
1.508958e+01
6.511056e+01
1.511549e+01
1.637518e+02
6.256581e+01
1.639039e+02
6.271791e+01
6.513252e+01
1.510552e+01
6.520359e+01
1.517659e+01
1.639621e+02
6.265213e+01
1.642125e+02
6.290251e+01
6.524539e+01
1.515423e+01
6.536721e+01
1.527605e+01
1.643025e+02
6.280622e+01
1.646521e+02
6.315587e+01
6.542808e+01
1.524055e+01
6.560041e+01
1.541288e+01
1.647737e+02
6.302844e+01
1.652238e+02
6.347856e+01
6.568086e+01
1.536447e+01
6.590391e+01
1.558752e+01
1.653771e+02
6.331945e+01
1.659290e+02
6.387138e+01
6.600428e+01
1.552624e+01
6.627859e+01
1.580055e+01
1.661141e+02
6.368005e+01
1.667694e+02
6.433530e+01
6.639920e+01
1.572627e+01
6.672545e+01
1.605253e+01
1.669867e+02
6.411124e+01
1.677470e+02
6.487154e+01
6.686665e+01
1.596516e+01
6.724569e+01
1.634420e+01
1.679971e+02
6.461418e+01
1.688645e+02
6.548152e+01
6.740786e+01
1.624353e+01
6.784073e+01
1.667640e+01
1.691478e+02
6.519023e+01
1.701245e+02
6.616690e+01
6.802428e+01
1.656220e+01
6.851218e+01
1.705009e+01
1.704417e+02
6.584096e+01
1.715303e+02
6.692953e+01
6.871760e+01
1.692207e+01
6.926190e+01
1.746636e+01
1.718822e+02
6.656816e+01
1.730855e+02
6.777152e+01
6.948970e+01
1.732421e+01
7.009196e+01
1.792646e+01
1.734729e+02
6.737385e+01
1.747942e+02
6.869520e+01
7.034273e+01
1.776981e+01
7.100469e+01
1.843177e+01
1.752179e+02
6.826028e+01
1.766608e+02
6.970317e+01
7.127908e+01
1.826022e+01
7.200272e+01
1.898386e+01
1.771217e+02
6.922998e+01
1.786901e+02
7.079831e+01
7.230141e+01
1.879697e+01
7.308891e+01
1.958447e+01
1.791894e+02
7.028575e+01
1.808874e+02
7.198380e+01
7.341267e+01
1.938176e+01
7.426648e+01
2.023556e+01
1.814262e+02
7.143068e+01
1.832586e+02
7.326311e+01
7.461613e+01
2.001649e+01
7.553894e+01
2.093929e+01
1.838379e+02
7.266819e+01
1.858098e+02
7.464006e+01
7.591539e+01
2.070329e+01
7.691021e+01
2.169811e+01
1.864309e+02
7.400204e+01
1.885477e+02
7.611883e+01
7.731439e+01
2.144455e+01
7.838457e+01
2.251473e+01
1.892119e+02
7.543638e+01
1.914795e+02
7.770400e+01
7.881750e+01
2.224295e+01
7.996677e+01
2.339221e+01
1.921880e+02
7.697575e+01
1.946128e+02
7.940057e+01
8.042951e+01
2.310149e+01
8.166201e+01
2.433399e+01
1.953667e+02
7.862519e+01
1.979555e+02
8.121399e+01
8.215569e+01
2.402358e+01
8.347608e+01
2.534397e+01
1.987559e+02
8.039022e+01
2.015159e+02
8.315024e+01
8.400185e+01
2.501306e+01
8.541537e+01
2.642658e+01
2.023638e+02
8.227695e+01
2.053027e+02
8.521583e+01
8.597439e+01
2.607435e+01
8.748695e+01
2.758691e+01
2.061987e+02
8.429213e+01
2.093245e+02
8.741790e+01
8.808039e+01
2.721249e+01
8.969872e+01
2.883083e+01
2.102688e+02
8.644327e+01
2.135898e+02
8.976425e+01
9.032772e+01
2.843337e+01
9.205953e+01
3.016518e+01
2.145821e+02
8.873870e+01
2.181068e+02
9.226344e+01
9.272510e+01
2.974381e+01
9.457930e+01
3.159802e+01
2.191459e+02
9.118780e+01
2.228830e+02
9.492488e+01
9.528231e+01
3.115190e+01
9.726930e+01
3.313889e+01
2.239663e+02
9.380108e+01
2.279241e+02
9.775890e+01
9.801034e+01
3.266727e+01
1.001423e+02
3.479928e+01
2.290476e+02
9.659050e+01
2.332340e+02
1.007769e+02
1.009216e+02
3.430152e+01
1.032132e+02
3.659313e+01
2.343911e+02
9.956969e+01
2.388129e+02
1.039915e+02
1.040302e+02
3.606877e+01
1.064990e+02
3.853753e+01
2.399941e+02
1.027544e+02
2.446565e+02
1.074168e+02
1.073524e+02
3.798647e+01
1.100197e+02
4.065376e+01
2.458476e+02
1.061628e+02
2.507530e+02
1.110682e+02
1.109069e+02
4.007627e+01
1.137992e+02
4.296854e+01
2.519346e+02
1.098166e+02
2.570810e+02
1.149630e+02
1.147157e+02
4.236564e+01
1.178659e+02
4.551592e+01
2.582258e+02
1.137409e+02
2.636054e+02
1.191204e+02
1.188041e+02
4.488961e+01
1.222542e+02
4.833972e+01
2.646763e+02
1.179659e+02
2.702720e+02
1.235616e+02
1.232025e+02
4.769365e+01
1.270061e+02
5.149728e+01
2.712194e+02
1.225276e+02
2.770011e+02
1.283093e+02
1.279458e+02
5.083781e+01
1.321727e+02
5.506473e+01
2.777597e+02
1.274683e+02
2.836790e+02
1.333876e+02
1.330743e+02
5.440297e+01
1.378166e+02
5.914520e+01
2.841638e+02
1.328378e+02
2.901473e+02
1.388214e+02
1.386308e+02
5.850139e+01
1.440118e+02
6.388238e+01
2.902482e+02
1.386956e+02
2.961913e+02
1.446387e+02
1.446514e+02
6.329581e+01
1.508416e+02
6.948599e+01
2.957575e+02
1.451212e+02
3.015266e+02
1.508903e+02
1.511358e+02
6.903991e+01
1.583860e+02
7.629009e+01
3.003117e+02
1.522661e+02
3.057943e+02
1.577488e+02
1.579583e+02
7.618908e+01
1.667006e+02
8.493135e+01
3.032119e+02
1.606002e+02
3.086192e+02
1.660074e+02
1.646955e+02
8.578036e+01
1.758635e+02
9.694842e+01
3.031942e+02
1.717429e+02
3.098519e+02
1.784005e+02
1.701042e+02
1.023741e+02
1.851176e+02
1.173876e+02
3.046565e+02
1.841498e+02
3.108248e+02
1.903181e+02
1.813930e+02
1.200823e+02
1.907684e+02
1.294577e+02
3.088081e+02
1.922796e+02
3.161047e+02
1.995762e+02
1.902718e+02
1.296167e+02
1.987770e+02
1.381218e+02
3.158176e+02
1.996969e+02
3.240699e+02
2.079491e+02
1.989675e+02
1.379277e+02
2.069408e+02
1.459010e+02
3.247729e+02
2.071326e+02
3.336899e+02
2.160497e+02
2.076765e+02
1.453844e+02
2.151720e+02
1.528799e+02
3.349726e+02
2.146311e+02
3.442605e+02
2.239190e+02
2.162319e+02
1.521508e+02
2.232662e+02
1.591850e+02
3.459049e+02
2.221109e+02
3.553103e+02
2.315163e+02
2.245431e+02
1.583143e+02
2.311238e+02
1.648950e+02
3.571711e+02
2.294679e+02
3.664793e+02
2.387761e+02
2.325317e+02
1.639393e+02
2.386598e+02
1.700674e+02
3.684518e+02
2.366012e+02
3.774835e+02
2.456329e+02
2.401300e+02
1.690725e+02
2.458019e+02
1.747444e+02
3.794872e+02
2.434216e+02
3.880945e+02
2.520289e+02
2.472792e+02
1.737478e+02
2.524886e+02
1.789573e+02
3.900657e+02
2.498530e+02
3.981273e+02
2.579147e+02
2.539288e+02
1.779886e+02
2.586685e+02
1.827283e+02
4.000145e+02
2.558323e+02
4.074321e+02
2.632499e+02
2.600366e+02
1.818110e+02
2.642989e+02
1.860733e+02
4.091936e+02
2.613076e+02
4.158878e+02
2.680018e+02
2.655672e+02
1.852254e+02
2.693450e+02
1.890032e+02
4.174901e+02
2.662367e+02
4.233977e+02
2.721443e+02
2.704920e+02
1.882386e+02
2.737788e+02
1.915254e+02
4.248138e+02
2.705856e+02
4.298848e+02
2.756567e+02
2.747875e+02
1.908547e+02
2.775777e+02
1.936450e+02
4.310936e+02
2.743275e+02
4.352894e+02
2.785233e+02
2.784352e+02
1.930761e+02
2.807243e+02
1.953652e+02
4.362743e+02
2.774410e+02
4.395656e+02
2.807323e+02
2.814207e+02
1.949040e+02
2.832049e+02
1.966881e+02
4.403144e+02
2.799101e+02
4.426796e+02
2.822753e+02
2.837330e+02
1.963389e+02
2.850094e+02
1.976152e+02
4.431835e+02
2.817223e+02
4.446083e+02
2.831471e+02
2.853642e+02
1.973809e+02
2.861307e+02
1.981475e+02
4.448616e+02
2.828691e+02
4.453374e+02
2.833450e+02
2.863089e+02
1.980299e+02
2.865646e+02
1.982856e+02
</DataArray>
<DataArray type="Float32" Name="V2" format="ascii">
4.377832e-01
4.640780e-01
4.385874e-01
4.648681e-01
4.640780e-01
4.950000e-01
4.648681e-01
4.957781e-01
4.385874e-01
4.648681e-01
4.409886e-01
4.672379e-01
4.648681e-01
4.957781e-01
4.672379e-01
4.981113e-01
4.409886e-01
4.672379e-01
4.449868e-01
4.711839e-01
4.672379e-01
4.981113e-01
4.711839e-01
5.019963e-01
4.449868e-01
4.711839e-01
4.505761e-01
4.767003e-01
4.711839e-01
5.019963e-01
4.767003e-01
5.074273e-01
4.505761e-01
4.767003e-01
4.577486e-01
4.837791e-01
4.767003e-01
5.074273e-01
4.837791e-01
5.143967e-01
4.577486e-01
4.837791e-01
4.664938e-01
4.924101e-01
4.837791e-01
5.143967e-01
4.924101e-01
5.228943e-01
4.664938e-01
4.924101e-01
4.767991e-01
5.025809e-01
4.924101e-01
5.228943e-01
5.025809e-01
5.329078e-01
4.767991e-01
5.025809e-01
4.886495e-01
5.142766e-01
5.025809e-01
5.329078e-01
5.142766e-01
5.444227e-01
4.886495e-01
5.142766e-01
5.020280e-01
5.274805e-01
5.142766e-01
5.444227e-01
5.274805e-01
5.574225e-01
5.020280e-01
5.274805e-01
5.169150e-01
5.421732e-01
5.274805e-01
5.574225e-01
5.421732e-01
5.718881e-01
5.169150e-01
5.421732e-01
5.332888e-01
5.583334e-01
5.421732e-01
5.718881e-01
5.583334e-01
5.877985e-01
5.332888e-01
5.583334e-01
5.511258e-01
5.759377e-01
5.583334e-01
5.877985e-01
5.759377e-01
6.051307e-01
5.511258e-01
5.759377e-01
5.703996e-01
5.949602e-01
5.759377e-01
6.051307e-01
5.949602e-01
6.238592e-01
5.703996e-01
5.949602e-01
5.910823e-01
6.153732e-01
5.949602e-01
6.238592e-01
6.153732e-01
6.439568e-01
5.910823e-01
6.153732e-01
6.131434e-01
6.371468e-01
6.153732e-01
6.439568e-01
6.371468e-01
6.653939e-01
6.131434e-01
6.371468e-01
6.365504e-01
6.602489e-01
6.371468e-01
6.653939e-01
6.602489e-01
6.881391e-01
6.365504e-01
6.602489e-01
6.612689e-01
6.846455e-01
6.602489e-01
6.881391e-01
6.846455e-01
7.121588e-01
6.612689e-01
6.846455e-01
6.872623e-01
7.103006e-01
6.846455e-01
7.121588e-01
7.103006e-01
7.374177e-01
6.872623e-01
7.103006e-01
7.144919e-01
7.371761e-01
7.103006e-01
7.374177e-01
7.371761e-01
7.638782e-01
7.144919e-01
7.371761e-01
7.429171e-01
7.652320e-01
7.371761e-01
7.638782e-01
7.652320e-01
7.915012e-01
7.429171e-01
7.652320e-01
7.724954e-01
7.944266e-01
7.652320e-01
7.915012e-01
7.944266e-01
8.202454e-01
7.724954e-01
7.944266e-01
8.031824e-01
8.247160e-01
7.944266e-01
8.202454e-01
8.247160e-01
8.500679e-01
8.031824e-01
8.247160e-01
8.349315e-01
8.560547e-01
8.247160e-01
8.500679e-01
8.560547e-01
8.809242e-01
8.349315e-01
8.560547e-01
8.676947e-01
8.883955e-01
8.560547e-01
8.809242e-01
8.883955e-01
9.127678e-01
8.676947e-01
8.883955e-01
9.014218e-01
9.216894e-01
8.883955e-01
9.127678e-01
9.216894e-01
9.455508e-01
9.014218e-01
9.216894e-01
9.360609e-01
9.558857e-01
9.216894e-01
9.455508e-01
9.558857e-01
9.792239e-01
9.360609e-01
9.558857e-01
9.715583e-01
9.909322e-01
9.558857e-01
9.792239e-01
9.909322e-01
1.013736e+00
9.715583e-01
9.909322e-01
1.007859e+00
1.026775e+00
9.909322e-01
1.013736e+00
1.026775e+00
1.049036e+00
1.007859e+00
1.026775e+00
1.044904e+00
1.063360e+00
1.026775e+00
1.049036e+00
1.063360e+00
1.085070e+00
1.044904e+00
1.063360e+00
1.082636e+00
1.100629e+00
1.063360e+00
1.085070e+00
1.100629e+00
1.121783e+00
1.082636e+00
1.100629e+00
1.120993e+00
1.138525e+00
1.100629e+00
1.121783e+00
1.138525e+00
1.159122e+00
1.120993e+00
1.138525e+00
1.159912e+00
1.176989e+00
1.138525e+00
1.159122e+00
1.176989e+00
1.197031e+00
1.159912e+00
1.176989e+00
1.199328e+00
1.215962e+00
1.176989e+00
1.197031e+00
1.215962e+00
1.235454e+00
1.199328e+00
1.215962e+00
1.239173e+00
1.255381e+00
1.215962e+00
1.235454e+00
1.255381e+00
1.274337e+00
1.239173e+00
1.255381e+00
1.279376e+00
1.295187e+00
1.255381e+00
1.274337e+00
1.295187e+00
1.313627e+00
1.279376e+00
1.295187e+00
1.319865e+00
1.335315e+00
1.295187e+00
1.313627e+00
1.335315e+00
1.353271e+00
1.319865e+00
1.335315e+00
1.360560e+00
1.375704e+00
1.335315e+00
1.353271e+00
1.375704e+00
1.393220e+00
1.360560e+00
1.375704e+00
1.401380e+00
1.416289e+00
1.375704e+00
1.393220e+00
1.416289e+00
1.433429e+00
1.401380e+00
1.416289e+00
1.442237e+00
1.457006e+00
1.416289e+00
1.433429e+00
1.457006e+00
1.473862e+00
1.442237e+00
1.457006e+00
1.483033e+00
1.497786e+00
1.457006e+00
1.473862e+00
1.497786e+00
1.514489e+00
1.483033e+00
1.497786e+00
1.523655e+00
1.538553e+00
1.497786e+00
1.514489e+00
1.538553e+00
1.555298e+00
1.523655e+00
1.538553e+00
1.563954e+00
1.579203e+00
1.538553e+00
1.555298e+00
1.579203e+00
1.596287e+00
1.563954e+00
1.579203e+00
1.603696e+00
1.619513e+00
1.579203e+00
1.596287e+00
1.619513e+00
1.637394e+00
1.603696e+00
1.619513e+00
1.642505e+00
1.658860e+00
1.619513e+00
1.637394e+00
1.658860e+00
1.677401e+00
1.642505e+00
1.658860e+00
1.679225e+00
1.695800e+00
1.658860e+00
1.677401e+00
1.695800e+00
1.714427e+00
1.679225e+00
1.695800e+00
1.713427e+00
1.730406e+00
1.695800e+00
1.714427e+00
1.730406e+00
1.749470e+00
1.713427e+00
1.730406e+00
1.745145e+00
1.762679e+00
1.730406e+00
1.749470e+00
1.762679e+00
1.782298e+00
1.745145e+00
1.762679e+00
1.774473e+00
1.792608e+00
1.762679e+00
1.782298e+00
1.792608e+00
1.812836e+00
1.774473e+00
1.792608e+00
1.801484e+00
1.820212e+00
1.792608e+00
1.812836e+00
1.820212e+00
1.841051e+00
1.801484e+00
1.820212e+00
1.826253e+00
1.845535e+00
1.820212e+00
1.841051e+00
1.845535e+00
1.866958e+00
1.826253e+00
1.845535e+00
1.848853e+00
1.868635e+00
1.845535e+00
1.866958e+00
1.868635e+00
1.890597e+00
1.848853e+00
1.868635e+00
1.869357e+00
1.889580e+00
1.868635e+00
1.890597e+00
1.889580e+00
1.912024e+00
1.869357e+00
1.889580e+00
1.887834e+00
1.908438e+00
1.889580e+00
1.912024e+00
1.908438e+00
1.931306e+00
1.887834e+00
1.908438e+00
1.904349e+00
1.925278e+00
1.908438e+00
1.931306e+00
1.925278e+00
1.948512e+00
1.904349e+00
1.925278e+00
1.918961e+00
1.940162e+00
1.925278e+00
1.948512e+00
1.940162e+00
1.963708e+00
1.918961e+00
1.940162e+00
1.931725e+00
1.953152e+00
1.940162e+00
1.963708e+00
1.953152e+00
1.976958e+00
1.931725e+00
1.953152e+00
1.942689e+00
1.964299e+00
1.953152e+00
1.976958e+00
1.964299e+00
1.988321e+00
1.942689e+00
1.964299e+00
1.951895e+00
1.973652e+00
1.964299e+00
1.988321e+00
1.973652e+00
1.997847e+00
1.951895e+00
1.973652e+00
1.959379e+00
1.981250e+00
1.973652e+00
1.997847e+00
1.981250e+00
2.005581e+00
1.959379e+00
1.981250e+00
1.965169e+00
1.987126e+00
1.981250e+00
2.005581e+00
1.987126e+00
2.011558e+00
1.965169e+00
1.987126e+00
1.969289e+00
1.991305e+00
1.987126e+00
2.011558e+00
1.991305e+00
2.015808e+00
1.969289e+00
1.991305e+00
1.971754e+00
1.993805e+00
1.991305e+00
2.015808e+00
1.993805e+00
2.018350e+00
1.971754e+00
1.993805e+00
1.972575e+00
1.994637e+00
1.993805e+00
2.018350e+00
1.994637e+00
2.019195e+00
</DataArray>
<DataArray type="Float32" Name="V3" format="ascii">
0.000000e+00
0.000000e+00
2.646347e-02
2.580310e-02
0.000000e+00
0.000000e+00
2.580310e-02
2.502992e-02
2.646347e-02
2.580310e-02
5.286230e-02
5.154222e-02
2.580310e-02
2.502992e-02
5.154222e-02
4.999663e-02
5.286230e-02
5.154222e-02
7.913150e-02
7.715323e-02
5.154222e-02
4.999663e-02
7.715323e-02
7.483701e-02
7.913150e-02
7.715323e-02
1.052065e-01
1.025723e-01
7.715323e-02
7.483701e-02
1.025723e-01
9.948805e-02
1.052065e-01
1.025723e-01
1.310228e-01
1.277357e-01
1.025723e-01
9.948805e-02
1.277357e-01
1.238870e-01
1.310228e-01
1.277357e-01
1.565165e-01
1.525802e-01
1.277357e-01
1.238870e-01
1.525802e-01
1.479713e-01
1.565165e-01
1.525802e-01
1.816237e-01
1.770427e-01
1.525802e-01
1.479713e-01
1.770427e-01
1.716789e-01
1.816237e-01
1.770427e-01
2.062812e-01
2.010607e-01
1.770427e-01
1.716789e-01
2.010607e-01
1.949480e-01
2.062812e-01
2.010607e-01
2.304263e-01
2.245723e-01
2.010607e-01
1.949480e-01
2.245723e-01
2.177175e-01
2.304263e-01
2.245723e-01
2.539968e-01
2.475158e-01
2.245723e-01
2.177175e-01
2.475158e-01
2.399268e-01
2.539968e-01
2.475158e-01
2.769312e-01
2.698307e-01
2.475158e-01
2.399268e-01
2.698307e-01
2.615159e-01
2.769312e-01
2.698307e-01
2.991688e-01
2.914567e-01
2.698307e-01
2.615159e-01
2.914567e-01
2.824256e-01
2.991688e-01
2.914567e-01
3.206496e-01
3.123346e-01
2.914567e-01
2.824256e-01
3.123346e-01
3.025973e-01
3.206496e-01
3.123346e-01
3.413145e-01
3.324061e-01
3.123346e-01
3.025973e-01
3.324061e-01
3.219735e-01
3.413145e-01
3.324061e-01
3.611055e-01
3.516137e-01
3.324061e-01
3.219735e-01
3.516137e-01
3.404974e-01
3.611055e-01
3.516137e-01
3.799655e-01
3.699010e-01
3.516137e-01
3.404974e-01
3.699010e-01
3.581136e-01
3.799655e-01
3.699010e-01
3.978384e-01
3.872126e-01
3.699010e-01
3.581136e-01
3.872126e-01
3.747672e-01
3.978384e-01
3.872126e-01
4.146695e-01
4.034943e-01
3.872126e-01
3.747672e-01
4.034943e-01
3.904049e-01
4.146695e-01
4.034943e-01
4.304050e-01
4.186931e-01
4.034943e-01
3.904049e-01
4.186931e-01
4.049745e-01
4.304050e-01
4.186931e-01
4.449926e-01
4.327572e-01
4.186931e-01
4.049745e-01
4.327572e-01
4.184249e-01
4.449926e-01
4.327572e-01
4.583814e-01
4.456364e-01
4.327572e-01
4.184249e-01
4.456364e-01
4.307067e-01
4.583814e-01
4.456364e-01
4.705216e-01
4.572816e-01
4.456364e-01
4.307067e-01
4.572816e-01
4.417715e-01
4.705216e-01
4.572816e-01
4.813652e-01
4.676454e-01
4.572816e-01
4.417715e-01
4.676454e-01
4.515728e-01
4.813652e-01
4.676454e-01
4.908654e-01
4.766819e-01
4.676454e-01
4.515728e-01
4.766819e-01
4.600655e-01
4.908654e-01
4.766819e-01
4.989772e-01
4.843466e-01
4.766819e-01
4.600655e-01
4.843466e-01
4.672062e-01
4.989772e-01
4.843466e-01
5.056571e-01
4.905969e-01
4.843466e-01
4.672062e-01
4.905969e-01
4.729532e-01
5.056571e-01
4.905969e-01
5.108632e-01
4.953919e-01
4.905969e-01
4.729532e-01
4.953919e-01
4.772668e-01
5.108632e-01
4.953919e-01
5.145553e-01
4.986922e-01
4.953919e-01
4.772668e-01
4.986922e-01
4.801090e-01
5.145553e-01
4.986922e-01
5.166947e-01
5.004605e-01
4.986922e-01
4.801090e-01
5.004605e-01
4.814441e-01
5.166947e-01
5.004605e-01
5.172448e-01
5.006614e-01
5.004605e-01
4.814441e-01
5.006614e-01
4.812384e-01
5.172448e-01
5.006614e-01
5.161702e-01
4.992612e-01
5.006614e-01
4.812384e-01
4.992612e-01
4.794604e-01
5.161702e-01
4.992612e-01
5.134375e-01
4.962282e-01
4.992612e-01
4.794604e-01
4.962282e-01
4.760813e-01
5.134375e-01
4.962282e-01
5.090148e-01
4.915327e-01
4.962282e-01
4.760813e-01
4.915327e-01
4.710747e-01
5.090148e-01
4.915327e-01
5.028717e-01
4.851472e-01
4.915327e-01
4.710747e-01
4.851472e-01
4.644169e-01
5.028717e-01
4.851472e-01
4.949794e-01
4.770460e-01
4.851472e-01
4.644169e-01
4.770460e-01
4.560873e-01
4.949794e-01
4.770460e-01
4.853104e-01
4.672053e-01
4.770460e-01
4.560873e-01
4.672053e-01
4.460687e-01
4.853104e-01
4.672053e-01
4.738385e-01
4.556033e-01
4.672053e-01
4.460687e-01
4.556033e-01
4.343472e-01
4.738385e-01
4.556033e-01
4.605388e-01
4.422203e-01
4.556033e-01
4.343472e-01
4.422203e-01
4.209131e-01
4.605388e-01
4.422203e-01
4.453875e-01
4.270380e-01
4.422203e-01
4.209131e-01
4.270380e-01
4.057614e-01
4.453875e-01
4.270380e-01
4.283626e-01
4.100402e-01
4.270380e-01
4.057614e-01
4.100402e-01
3.888930e-01
4.283626e-01
4.100402e-01
4.094466e-01
3.912151e-01
4.100402e-01
3.888930e-01
3.912151e-01
3.703157e-01
4.094466e-01
3.912151e-01
3.886385e-01
3.705655e-01
3.912151e-01
3.703157e-01
3.705655e-01
3.500402e-01
3.886385e-01
3.705655e-01
3.660098e-01
3.481512e-01
3.705655e-01
3.500402e-01
3.481512e-01
3.280383e-01
3.660098e-01
3.481512e-01
3.420022e-01
3.243869e-01
3.481512e-01
3.280383e-01
3.243869e-01
3.042113e-01
3.420022e-01
3.243869e-01
3.185906e-01
3.015724e-01
3.243869e-01
3.042113e-01
3.015724e-01
2.822850e-01
3.185906e-01
3.015724e-01
2.964298e-01
2.801506e-01
3.015724e-01
2.822850e-01
2.801506e-01
2.619102e-01
2.964298e-01
2.801506e-01
2.754353e-01
2.600125e-01
2.801506e-01
2.619102e-01
2.600125e-01
2.428636e-01
2.754353e-01
2.600125e-01
2.554054e-01
2.409261e-01
2.600125e-01
2.428636e-01
2.409261e-01
2.249066e-01
2.554054e-01
2.409261e-01
2.361744e-01
2.226976e-01
2.409261e-01
2.249066e-01
2.226976e-01
2.078341e-01
2.361744e-01
2.226976e-01
2.175972e-01
2.051577e-01
2.226976e-01
2.078341e-01
2.051577e-01
1.914650e-01
2.175972e-01
2.051577e-01
1.995508e-01
1.881635e-01
2.051577e-01
1.914650e-01
1.881635e-01
1.756442e-01
1.995508e-01
1.881635e-01
1.819316e-01
1.715968e-01
1.881635e-01
1.756442e-01
1.715968e-01
1.602424e-01
1.819316e-01
1.715968e-01
1.646536e-01
1.553605e-01
1.715968e-01
1.602424e-01
1.553605e-01
1.451543e-01
1.646536e-01
1.553605e-01
1.476461e-01
1.393765e-01
1.553605e-01
1.451543e-01
1.393765e-01
1.302957e-01
1.476461e-01
1.393765e-01
1.308508e-01
1.235823e-01
1.393765e-01
1.302957e-01
1.235823e-01
1.156007e-01
1.308508e-01
1.235823e-01
1.142206e-01
1.079287e-01
1.235823e-01
1.156007e-01
1.079287e-01
1.010189e-01
1.142206e-01
1.079287e-01
9.771715e-02
9.237742e-02
1.079287e-01
1.010189e-01
9.237742e-02
8.651248e-02
9.771715e-02
9.237742e-02
8.130985e-02
7.689920e-02
9.237742e-02
8.651248e-02
7.689920e-02
7.205395e-02
8.130985e-02
7.689920e-02
6.497404e-02
6.147192e-02
7.689920e-02
7.205395e-02
6.147192e-02
5.762410e-02
6.497404e-02
6.147192e-02
4.868995e-02
4.607910e-02
6.147192e-02
5.762410e-02
4.607910e-02
4.321013e-02
4.868995e-02
4.607910e-02
3.244152e-02
3.070857e-02
4.607910e-02
4.321013e-02
3.070857e-02
2.880408e-02
3.244152e-02
3.070857e-02
1.621540e-02
1.535123e-02
3.070857e-02
2.880408e-02
1.535123e-02
1.440145e-02
1.621540e-02
1.535123e-02
0.000000e+00
0.000000e+00
1.535123e-02
1.440145e-02
0.000000e+00
0.000000e+00
</DataArray>
<DataArray type="Float32" Name="V4" format="ascii">
8.500000e-01
9.250000e-01
8.500000e-01
9.250000e-01
9.250000e-01
1.000000e+00