<?xml version="1.0"?>
<VTKFile type="UnstructuredGrid" version="0.1" byte_order="LittleEndian" compressor="vtkZLibDataCompressor">
<UnstructuredGrid>
<Piece NumberOfPoints="504" NumberOfCells="126">
<Points>
<DataArray type="Float32" NumberOfComponents="3" format="ascii">
0.000000e+00 9.327374e-01 0.000000e+00
0.000000e+00 9.824898e-01 0.000000e+00
2.711196e-02 9.327612e-01 0.000000e+00
2.730080e-02 9.825163e-01 0.000000e+00
0.000000e+00 9.824898e-01 0.000000e+00
0.000000e+00 1.040000e+00 0.000000e+00
2.730080e-02 9.825163e-01 0.000000e+00
2.747529e-02 1.040000e+00 0.000000e+00
2.711196e-02 9.327612e-01 0.000000e+00
2.730080e-02 9.825163e-01 0.000000e+00
5.420809e-02 9.328270e-01 0.000000e+00
5.460613e-02 9.825948e-01 0.000000e+00
2.730080e-02 9.825163e-01 0.000000e+00
2.747529e-02 1.040000e+00 0.000000e+00
5.460613e-02 9.825948e-01 0.000000e+00
5.497071e-02 1.040000e+00 0.000000e+00
5.420809e-02 9.328270e-01 0.000000e+00
5.460613e-02 9.825948e-01 0.000000e+00
8.127097e-02 9.329332e-01 0.000000e+00
8.192026e-02 9.827257e-01 0.000000e+00
5.460613e-02 9.825948e-01 0.000000e+00
5.497071e-02 1.040000e+00 0.000000e+00
8.192026e-02 9.827257e-01 0.000000e+00
8.250712e-02 1.040000e+00 0.000000e+00
8.127097e-02 9.329332e-01 0.000000e+00
8.192026e-02 9.827257e-01 0.000000e+00
1.082806e-01 9.330736e-01 0.000000e+00
1.092462e-01 9.829077e-01 0.000000e+00
8.192026e-02 9.827257e-01 0.000000e+00
8.250712e-02 1.040000e+00 0.000000e+00
1.092462e-01 9.829077e-01 0.000000e+00
1.101061e-01 1.040000e+00 0.000000e+00
1.082806e-01 9.330736e-01 0.000000e+00
1.092462e-01 9.829077e-01 0.000000e+00
1.352130e-01 9.332362e-01 0.000000e+00
1.365848e-01 9.831363e-01 0.000000e+00
1.092462e-01 9.829077e-01 0.000000e+00
1.101061e-01 1.040000e+00 0.000000e+00
1.365848e-01 9.831363e-01 0.000000e+00
1.377900e-01 1.040000e+00 0.000000e+00
1.352130e-01 9.332362e-01 0.000000e+00
1.365848e-01 9.831363e-01 0.000000e+00
1.620388e-01 9.333997e-01 0.000000e+00
1.639316e-01 9.834007e-01 0.000000e+00
1.365848e-01 9.831363e-01 0.000000e+00
1.377900e-01 1.040000e+00 0.000000e+00
1.639316e-01 9.834007e-01 0.000000e+00
1.655808e-01 1.040000e+00 0.000000e+00
1.620388e-01 9.333997e-01 0.000000e+00
1.639316e-01 9.834007e-01 0.000000e+00
1.887228e-01 9.335278e-01 0.000000e+00
1.912727e-01 9.836773e-01 0.000000e+00
1.639316e-01 9.834007e-01 0.000000e+00
1.655808e-01 1.040000e+00 0.000000e+00
1.912727e-01 9.836773e-01 0.000000e+00
1.934973e-01 1.040000e+00 0.000000e+00
1.887228e-01 9.335278e-01 0.000000e+00
1.912727e-01 9.836773e-01 0.000000e+00
2.152240e-01 9.335595e-01 0.000000e+00
2.185759e-01 9.839182e-01 0.000000e+00
1.912727e-01 9.836773e-01 0.000000e+00
1.934973e-01 1.040000e+00 0.000000e+00
2.185759e-01 9.839182e-01 0.000000e+00
2.215510e-01 1.040000e+00 0.000000e+00
2.152240e-01 9.335595e-01 0.000000e+00
2.185759e-01 9.839182e-01 0.000000e+00
2.414964e-01 9.333984e-01 0.000000e+00
2.457767e-01 9.840304e-01 0.000000e+00
2.185759e-01 9.839182e-01 0.000000e+00
2.215510e-01 1.040000e+00 0.000000e+00
2.457767e-01 9.840304e-01 0.000000e+00
2.497382e-01 1.040000e+00 0.000000e+00
2.414964e-01 9.333984e-01 0.000000e+00
2.457767e-01 9.840304e-01 0.000000e+00
2.674824e-01 9.328830e-01 0.000000e+00
2.727762e-01 9.838210e-01 0.000000e+00
2.457767e-01 9.840304e-01 0.000000e+00
2.497382e-01 1.040000e+00 0.000000e+00
2.727762e-01 9.838210e-01 0.000000e+00
2.780203e-01 1.040000e+00 0.000000e+00
2.674824e-01 9.328830e-01 0.000000e+00
2.727762e-01 9.838210e-01 0.000000e+00
2.932006e-01 9.318346e-01 0.000000e+00
2.996042e-01 9.830489e-01 0.000000e+00
2.727762e-01 9.838210e-01 0.000000e+00
2.780203e-01 1.040000e+00 0.000000e+00
2.996042e-01 9.830489e-01 0.000000e+00
3.060900e-01 1.039659e+00 0.000000e+00
2.932006e-01 9.318346e-01 0.000000e+00
2.996042e-01 9.830489e-01 0.000000e+00
3.186279e-01 9.299759e-01 0.000000e+00
3.262176e-01 9.812456e-01 0.000000e+00
2.996042e-01 9.830489e-01 0.000000e+00
3.060900e-01 1.039659e+00 0.000000e+00
3.262176e-01 9.812456e-01 0.000000e+00
3.340809e-01 1.037419e+00 0.000000e+00
3.186279e-01 9.299759e-01 0.000000e+00
3.262176e-01 9.812456e-01 0.000000e+00
3.437742e-01 9.272242e-01 0.000000e+00
3.526707e-01 9.783914e-01 0.000000e+00
3.262176e-01 9.812456e-01 0.000000e+00
3.340809e-01 1.037419e+00 0.000000e+00
3.526707e-01 9.783914e-01 0.000000e+00
3.621437e-01 1.033942e+00 0.000000e+00
3.437742e-01 9.272242e-01 0.000000e+00
3.526707e-01 9.783914e-01 0.000000e+00
3.686868e-01 9.235012e-01 0.000000e+00
3.790208e-01 9.744272e-01 0.000000e+00
3.526707e-01 9.783914e-01 0.000000e+00
3.621437e-01 1.033942e+00 0.000000e+00
3.790208e-01 9.744272e-01 0.000000e+00
3.901596e-01 1.029334e+00 0.000000e+00
3.686868e-01 9.235012e-01 0.000000e+00
3.790208e-01 9.744272e-01 0.000000e+00
3.933805e-01 9.188188e-01 0.000000e+00
4.052445e-01 9.693997e-01 0.000000e+00
3.790208e-01 9.744272e-01 0.000000e+00
3.901596e-01 1.029334e+00 0.000000e+00
4.052445e-01 9.693997e-01 0.000000e+00
4.180671e-01 1.023659e+00 0.000000e+00
3.933805e-01 9.188188e-01 0.000000e+00
4.052445e-01 9.693997e-01 0.000000e+00
4.178595e-01 9.131988e-01 0.000000e+00
4.312991e-01 9.633492e-01 0.000000e+00
4.052445e-01 9.693997e-01 0.000000e+00
4.180671e-01 1.023659e+00 0.000000e+00
4.312991e-01 9.633492e-01 0.000000e+00
4.458075e-01 1.016950e+00 0.000000e+00
4.178595e-01 9.131988e-01 0.000000e+00
4.312991e-01 9.633492e-01 0.000000e+00
4.421179e-01 9.066692e-01 0.000000e+00
4.571446e-01 9.563157e-01 0.000000e+00
4.312991e-01 9.633492e-01 0.000000e+00
4.458075e-01 1.016950e+00 0.000000e+00
4.571446e-01 9.563157e-01 0.000000e+00
4.733293e-01 1.009239e+00 0.000000e+00
4.421179e-01 9.066692e-01 0.000000e+00
4.571446e-01 9.563157e-01 0.000000e+00
4.661433e-01 8.992583e-01 0.000000e+00
4.827467e-01 9.483369e-01 0.000000e+00
4.571446e-01 9.563157e-01 0.000000e+00
4.733293e-01 1.009239e+00 0.000000e+00
4.827467e-01 9.483369e-01 0.000000e+00
5.005886e-01 1.000559e+00 0.000000e+00
4.661433e-01 8.992583e-01 0.000000e+00
4.827467e-01 9.483369e-01 0.000000e+00
4.899202e-01 8.909937e-01 0.000000e+00
5.080758e-01 9.394481e-01 0.000000e+00
4.827467e-01 9.483369e-01 0.000000e+00
5.005886e-01 1.000559e+00 0.000000e+00
5.080758e-01 9.394481e-01 0.000000e+00
5.275476e-01 9.909426e-01 0.000000e+00
4.899202e-01 8.909937e-01 0.000000e+00
5.080758e-01 9.394481e-01 0.000000e+00
5.134311e-01 8.819019e-01 0.000000e+00
5.331060e-01 9.296829e-01 0.000000e+00
5.080758e-01 9.394481e-01 0.000000e+00
5.275476e-01 9.909426e-01 0.000000e+00
5.331060e-01 9.296829e-01 0.000000e+00
5.541745e-01 9.804207e-01 0.000000e+00
5.134311e-01 8.819019e-01 0.000000e+00
5.331060e-01 9.296829e-01 0.000000e+00
5.366577e-01 8.720085e-01 0.000000e+00
5.578140e-01 9.190727e-01 0.000000e+00
5.331060e-01 9.296829e-01 0.000000e+00
5.541745e-01 9.804207e-01 0.000000e+00
5.578140e-01 9.190727e-01 0.000000e+00
5.804418e-01 9.690248e-01 0.000000e+00
5.366577e-01 8.720085e-01 0.000000e+00
5.578140e-01 9.190727e-01 0.000000e+00
5.595815e-01 8.613384e-01 0.000000e+00
5.821785e-01 9.076470e-01 0.000000e+00
5.578140e-01 9.190727e-01 0.000000e+00
5.804418e-01 9.690248e-01 0.000000e+00
5.821785e-01 9.076470e-01 0.000000e+00
6.063255e-01 9.567850e-01 0.000000e+00
5.595815e-01 8.613384e-01 0.000000e+00
5.821785e-01 9.076470e-01 0.000000e+00
5.821843e-01 8.499155e-01 0.000000e+00
6.061800e-01 8.954340e-01 0.000000e+00
5.821785e-01 9.076470e-01 0.000000e+00
6.063255e-01 9.567850e-01 0.000000e+00
6.061800e-01 8.954340e-01 0.000000e+00
6.318046e-01 9.437298e-01 0.000000e+00
5.821843e-01 8.499155e-01 0.000000e+00
6.061800e-01 8.954340e-01 0.000000e+00
6.044481e-01 8.377632e-01 0.000000e+00
6.298000e-01 8.824602e-01 0.000000e+00
6.061800e-01 8.954340e-01 0.000000e+00
6.318046e-01 9.437298e-01 0.000000e+00
6.298000e-01 8.824602e-01 0.000000e+00
6.568598e-01 9.298869e-01 0.000000e+00
6.044481e-01 8.377632e-01 0.000000e+00
6.298000e-01 8.824602e-01 0.000000e+00
6.263555e-01 8.249039e-01 0.000000e+00
6.530213e-01 8.687510e-01 0.000000e+00
6.298000e-01 8.824602e-01 0.000000e+00
6.568598e-01 9.298869e-01 0.000000e+00
6.530213e-01 8.687510e-01 0.000000e+00
6.814738e-01 9.152824e-01 0.000000e+00
6.263555e-01 8.249039e-01 0.000000e+00
6.530213e-01 8.687510e-01 0.000000e+00
6.478897e-01 8.113597e-01 0.000000e+00
6.758274e-01 8.543305e-01 0.000000e+00
6.530213e-01 8.687510e-01 0.000000e+00
6.814738e-01 9.152824e-01 0.000000e+00
6.758274e-01 8.543305e-01 0.000000e+00
7.056306e-01 8.999414e-01 0.000000e+00
6.478897e-01 8.113597e-01 0.000000e+00
6.758274e-01 8.543305e-01 0.000000e+00
6.690343e-01 7.971517e-01 0.000000e+00
6.982029e-01 8.392220e-01 0.000000e+00
6.758274e-01 8.543305e-01 0.000000e+00
7.056306e-01 8.999414e-01 0.000000e+00
6.982029e-01 8.392220e-01 0.000000e+00
7.293149e-01 8.838880e-01 0.000000e+00
6.690343e-01 7.971517e-01 0.000000e+00
6.982029e-01 8.392220e-01 0.000000e+00
6.897735e-01 7.823007e-01 0.000000e+00
7.201329e-01 8.234476e-01 0.000000e+00
6.982029e-01 8.392220e-01 0.000000e+00
7.293149e-01 8.838880e-01 0.000000e+00
7.201329e-01 8.234476e-01 0.000000e+00
7.525126e-01 8.671452e-01 0.000000e+00
6.897735e-01 7.823007e-01 0.000000e+00
7.201329e-01 8.234476e-01 0.000000e+00
7.100923e-01 7.668270e-01 0.000000e+00
7.416030e-01 8.070290e-01 0.000000e+00
7.201329e-01 8.234476e-01 0.000000e+00
7.525126e-01 8.671452e-01 0.000000e+00
7.416030e-01 8.070290e-01 0.000000e+00
7.752101e-01 8.497355e-01 0.000000e+00
7.100923e-01 7.668270e-01 0.000000e+00
7.416030e-01 8.070290e-01 0.000000e+00
7.299761e-01 7.507504e-01 0.000000e+00
7.625998e-01 7.899870e-01 0.000000e+00
7.416030e-01 8.070290e-01 0.000000e+00
7.752101e-01 8.497355e-01 0.000000e+00
7.625998e-01 7.899870e-01 0.000000e+00
7.973945e-01 8.316805e-01 0.000000e+00
7.299761e-01 7.507504e-01 0.000000e+00
7.625998e-01 7.899870e-01 0.000000e+00
7.494108e-01 7.340902e-01 0.000000e+00
7.831098e-01 7.723420e-01 0.000000e+00
7.625998e-01 7.899870e-01 0.000000e+00
7.973945e-01 8.316805e-01 0.000000e+00
7.831098e-01 7.723420e-01 0.000000e+00
8.190532e-01 8.130013e-01 0.000000e+00
7.494108e-01 7.340902e-01 0.000000e+00
[...]
<PointData>
<DataArray type="Float32" Name="V1" format="ascii">
1.312139e+01
5.330671e+00
1.311538e+01
5.324663e+00
5.638098e+00
1.124503e+00
5.650006e+00
1.136411e+00
1.309213e+01
5.349205e+00
1.307460e+01
5.331672e+00
5.643932e+00
1.136649e+00
5.673866e+00
1.166582e+00
1.302531e+01
5.381746e+00
1.299503e+01
5.351467e+00
5.662726e+00
1.169332e+00
5.715311e+00
1.221918e+00
1.291535e+01
5.431772e+00
1.286954e+01
5.385965e+00
5.696596e+00
1.227641e+00
5.777472e+00
1.308518e+00
1.275346e+01
5.503331e+00
1.268873e+01
5.438604e+00
5.747607e+00
1.319063e+00
5.865581e+00
1.437037e+00
1.252880e+01
5.601689e+00
1.244170e+01
5.514582e+00
5.818602e+00
1.455961e+00
5.987048e+00
1.624408e+00
1.223024e+01
5.732974e+00
1.211840e+01
5.621137e+00
5.912809e+00
1.658431e+00
6.151760e+00
1.897382e+00
1.184992e+01
5.903282e+00
1.171411e+01
5.767478e+00
6.032380e+00
1.959472e+00
6.371754e+00
2.298846e+00
1.138924e+01
6.118201e+00
1.123491e+01
5.963875e+00
6.172790e+00
2.416153e+00
6.656585e+00
2.899948e+00
1.087099e+01
6.375907e+00
1.070880e+01
6.213719e+00
6.297146e+00
3.138512e+00
6.991876e+00
3.833242e+00
1.029702e+01
6.722517e+00
1.016756e+01
6.593054e+00
6.255157e+00
4.479084e+00
7.065168e+00
5.289095e+00
9.812419e+00
7.015861e+00
9.689361e+00
6.892803e+00
6.632722e+00
5.589867e+00
7.012619e+00
5.969765e+00
9.437685e+00
7.160773e+00
9.360617e+00
7.083705e+00
6.944305e+00
5.981069e+00
7.185077e+00
6.221840e+00
9.177757e+00
7.273640e+00
9.131891e+00
7.227774e+00
7.115845e+00
6.255522e+00
7.298880e+00
6.438556e+00
9.014497e+00
7.353530e+00
8.999367e+00
7.338400e+00
7.242049e+00
6.471650e+00
7.391654e+00
6.621255e+00
8.923046e+00
7.422643e+00
8.933009e+00
7.432605e+00
7.347127e+00
6.649048e+00
7.472874e+00
6.774795e+00
8.883540e+00
7.488241e+00
8.911886e+00
7.516587e+00
7.440816e+00
6.795387e+00
7.547986e+00
6.902557e+00
8.880382e+00
7.552380e+00
8.921437e+00
7.593435e+00
7.526661e+00
6.916344e+00
7.618816e+00
7.008499e+00
8.902450e+00
7.615099e+00
8.951871e+00
7.664520e+00
7.606096e+00
7.016624e+00
7.685939e+00
7.096467e+00
8.941843e+00
7.675966e+00
8.996424e+00
7.730548e+00
7.679801e+00
7.100199e+00
7.749477e+00
7.169875e+00
8.992900e+00
7.734548e+00
9.050306e+00
7.791955e+00
7.748222e+00
7.170341e+00
7.809458e+00
7.231577e+00
9.051517e+00
7.790540e+00
9.110060e+00
7.849082e+00
7.811738e+00
7.229687e+00
7.865925e+00
7.283874e+00
9.114693e+00
7.843766e+00
9.173161e+00
7.902234e+00
7.870704e+00
7.280334e+00
7.918967e+00
7.328596e+00
9.180227e+00
7.894159e+00
9.237762e+00
7.951695e+00
7.925463e+00
7.323938e+00
7.968711e+00
7.367186e+00
9.246508e+00
7.941726e+00
9.302515e+00
7.997732e+00
7.976335e+00
7.361806e+00
8.015307e+00
7.400778e+00
9.312371e+00
7.986524e+00
9.366446e+00
8.040598e+00
8.023625e+00
7.394969e+00
8.058922e+00
7.430265e+00
9.376980e+00
8.028644e+00
9.428864e+00
8.080528e+00
8.067611e+00
7.424240e+00
8.099725e+00
7.456354e+00
9.439748e+00
8.068200e+00
9.489289e+00
8.117741e+00
8.108551e+00
7.450269e+00
8.137888e+00
7.479606e+00
9.500280e+00
8.105312e+00
9.547403e+00
8.152435e+00
8.146678e+00
7.473571e+00
8.173573e+00
7.500466e+00
9.558320e+00
8.140110e+00
9.603006e+00
8.184796e+00
8.182207e+00
7.494561e+00
8.206941e+00
7.519294e+00
9.613717e+00
8.172720e+00
9.655988e+00
8.214990e+00
8.215333e+00
7.513572e+00
8.238139e+00
7.536378e+00
9.666399e+00
8.203268e+00
9.706305e+00
8.243174e+00
8.246232e+00
7.530874e+00
8.267309e+00
7.551952e+00
9.716352e+00
8.231875e+00
9.753962e+00
8.269485e+00
8.275064e+00
7.546689e+00
8.294582e+00
7.566207e+00
9.763600e+00
8.258658e+00
9.798996e+00
8.294054e+00
8.301978e+00
7.561197e+00
8.320079e+00
7.579299e+00
9.808200e+00
8.283725e+00
9.841472e+00
8.316997e+00
8.327105e+00
7.574549e+00
8.343915e+00
7.591359e+00
9.850227e+00
8.307182e+00
9.881467e+00
8.338422e+00
8.350567e+00
7.586868e+00
8.366193e+00
7.602494e+00
9.889768e+00
8.329123e+00
9.919071e+00
8.358426e+00
8.372474e+00
7.598259e+00
8.387011e+00
7.612795e+00
9.926920e+00
8.349641e+00
9.954379e+00
8.377100e+00
8.392929e+00
7.608810e+00
8.406458e+00
7.622339e+00
9.961783e+00
8.368819e+00
9.987489e+00
8.394525e+00
8.412023e+00
7.618596e+00
8.424618e+00
7.631191e+00
9.994458e+00
8.386736e+00
1.001850e+01
8.410777e+00
8.429840e+00
7.627681e+00
8.441566e+00
7.639407e+00
1.002504e+01
8.403465e+00
1.004750e+01
8.425925e+00
8.446459e+00
7.636121e+00
8.457372e+00
7.647035e+00
1.005364e+01
8.419074e+00
1.007460e+01
8.440032e+00
8.461949e+00
7.643964e+00
8.472102e+00
7.654117e+00
1.008034e+01
8.433624e+00
1.009987e+01
8.453155e+00
8.476375e+00
7.651252e+00
8.485814e+00
7.660690e+00
1.010523e+01
8.447174e+00
1.012341e+01
8.465348e+00
8.489798e+00
7.658021e+00
8.498564e+00
7.666787e+00
1.012841e+01
8.459776e+00
1.014529e+01
8.476660e+00
8.502270e+00
7.664304e+00
8.510401e+00
7.672435e+00
1.014994e+01
8.471480e+00
1.016559e+01
8.487134e+00
8.513843e+00
7.670131e+00
8.521372e+00
7.677660e+00
1.016991e+01
8.482330e+00
1.018439e+01
8.496812e+00
8.524561e+00
7.675527e+00
8.531519e+00
7.682485e+00
1.018838e+01
8.492369e+00
1.020174e+01
8.505730e+00
8.534465e+00
7.680514e+00
8.540881e+00
7.686929e+00
1.020542e+01
8.501633e+00
1.021771e+01
8.513923e+00
8.543595e+00
7.685115e+00
8.549492e+00
7.691011e+00
1.022109e+01
8.510159e+00
1.023235e+01
8.521421e+00
8.551985e+00
7.689346e+00
8.557386e+00
7.694747e+00
1.023545e+01
8.517976e+00
1.024572e+01
8.528251e+00
8.559665e+00
7.693224e+00
8.564592e+00
7.698151e+00
1.024854e+01
8.525115e+00
1.025786e+01
8.534440e+00
8.566665e+00
7.696766e+00
8.571135e+00
7.701235e+00
1.026041e+01
8.531602e+00
1.026882e+01
8.540009e+00
8.573011e+00
7.699983e+00
8.577040e+00
7.704012e+00
1.027111e+01
8.537459e+00
1.027863e+01
8.544979e+00
8.578725e+00
7.702887e+00
8.582328e+00
7.706491e+00
1.028068e+01
8.542708e+00
1.028734e+01
8.549367e+00
8.583828e+00
7.705490e+00
8.587019e+00
7.708681e+00
1.028913e+01
8.547368e+00
1.029496e+01
8.553190e+00
8.588339e+00
7.707800e+00
8.591128e+00
7.710589e+00
1.029652e+01
8.551456e+00
1.030152e+01
8.556461e+00
8.592273e+00
7.709825e+00
8.594671e+00
7.712224e+00
1.030285e+01
8.554985e+00
1.030705e+01
8.559191e+00
8.595645e+00
7.711574e+00
8.597660e+00
7.713589e+00
1.030815e+01
8.557969e+00
1.031158e+01
8.561391e+00
8.598466e+00
7.713051e+00
8.600106e+00
7.714691e+00
1.031245e+01
8.560418e+00
1.031510e+01
8.563067e+00
8.600747e+00
7.714263e+00
8.602016e+00
7.715532e+00
1.031575e+01
8.562340e+00
1.031764e+01
8.564226e+00
8.602495e+00
7.715212e+00
8.603399e+00
7.716116e+00
1.031807e+01
8.563743e+00
1.031920e+01
8.564871e+00
8.603717e+00
7.715903e+00
8.604258e+00
7.716444e+00
1.031942e+01
8.564630e+00
1.031980e+01
8.565006e+00
8.604417e+00
7.716338e+00
8.604597e+00
7.716518e+00
</DataArray>
<DataArray type="Float32" Name="V2" format="ascii">
9.327374e-01
9.824898e-01
9.331472e-01
9.828915e-01
9.824898e-01
1.040000e+00
9.828915e-01
1.040362e+00
9.331472e-01
9.828915e-01
9.343694e-01
9.840953e-01
9.828915e-01
1.040362e+00
9.840953e-01
1.041447e+00
9.343694e-01
9.840953e-01
9.363980e-01
9.860998e-01
9.840953e-01
1.041447e+00
9.860998e-01
1.043258e+00
9.363980e-01
9.860998e-01
9.392183e-01
9.889008e-01
9.860998e-01
1.043258e+00
9.889008e-01
1.045795e+00
9.392183e-01
9.889008e-01
9.428065e-01
9.924899e-01
9.889008e-01
1.045795e+00
9.924899e-01
1.049062e+00
9.428065e-01
9.924899e-01
9.471251e-01
9.968497e-01
9.924899e-01
1.049062e+00
9.968497e-01
1.053063e+00
9.471251e-01
9.968497e-01
9.521168e-01
1.001947e+00
9.968497e-01
1.053063e+00
1.001947e+00
1.057801e+00
9.521168e-01
1.001947e+00
9.576952e-01
1.007720e+00
1.001947e+00
1.057801e+00
1.007720e+00
1.063279e+00
9.576952e-01
1.007720e+00
9.637341e-01
1.014049e+00
1.007720e+00
1.063279e+00
1.014049e+00
1.069497e+00
9.637341e-01
1.014049e+00
9.700390e-01
1.020708e+00
1.014049e+00
1.069497e+00
1.020708e+00
1.076444e+00
9.700390e-01
1.020708e+00
9.764172e-01
1.027452e+00
1.020708e+00
1.076444e+00
1.027452e+00
1.083702e+00
9.764172e-01
1.027452e+00
9.825769e-01
1.033806e+00
1.027452e+00
1.083702e+00
1.033806e+00
1.089802e+00
9.825769e-01
1.033806e+00
9.884286e-01
1.039765e+00
1.033806e+00
1.089802e+00
1.039765e+00
1.095440e+00
9.884286e-01
1.039765e+00
9.939055e-01
1.045295e+00
1.039765e+00
1.095440e+00
1.045295e+00
1.100700e+00
9.939055e-01
1.045295e+00
9.990223e-01
1.050441e+00
1.045295e+00
1.100700e+00
1.050441e+00
1.105634e+00
9.990223e-01
1.050441e+00
1.003802e+00
1.055235e+00
1.050441e+00
1.105634e+00
1.055235e+00
1.110262e+00
1.003802e+00
1.055235e+00
1.008272e+00
1.059705e+00
1.055235e+00
1.110262e+00
1.059705e+00
1.114602e+00
1.008272e+00
1.059705e+00
1.012456e+00
1.063878e+00
1.059705e+00
1.114602e+00
1.063878e+00
1.118670e+00
1.012456e+00
1.063878e+00
1.016377e+00
1.067778e+00
1.063878e+00
1.118670e+00
1.067778e+00
1.122485e+00
1.016377e+00
1.067778e+00
1.020056e+00
1.071428e+00
1.067778e+00
1.122485e+00
1.071428e+00
1.126063e+00
1.020056e+00
1.071428e+00
1.023510e+00
1.074847e+00
1.071428e+00
1.126063e+00
1.074847e+00
1.129421e+00
1.023510e+00
1.074847e+00
1.026758e+00
1.078055e+00
1.074847e+00
1.129421e+00
1.078055e+00
1.132575e+00
1.026758e+00
1.078055e+00
1.029813e+00
1.081068e+00
1.078055e+00
1.132575e+00
1.081068e+00
1.135541e+00
1.029813e+00
1.081068e+00
1.032690e+00
1.083902e+00
1.081068e+00
1.135541e+00
1.083902e+00
1.138331e+00
1.032690e+00
1.083902e+00
1.035402e+00
1.086569e+00
1.083902e+00
1.138331e+00
1.086569e+00
1.140959e+00
1.035402e+00
1.086569e+00
1.037960e+00
1.089082e+00
1.086569e+00
1.140959e+00
1.089082e+00
1.143435e+00
1.037960e+00
1.089082e+00
1.040374e+00
1.091453e+00
1.089082e+00
1.143435e+00
1.091453e+00
1.145772e+00
1.040374e+00
1.091453e+00
1.042655e+00
1.093690e+00
1.091453e+00
1.145772e+00
1.093690e+00
1.147978e+00
1.042655e+00
1.093690e+00
1.044811e+00
1.095803e+00
1.093690e+00
1.147978e+00
1.095803e+00
1.150061e+00
1.044811e+00
1.095803e+00
1.046849e+00
1.097801e+00
1.095803e+00
1.150061e+00
1.097801e+00
1.152031e+00
1.046849e+00
1.097801e+00
1.048777e+00
1.099690e+00
1.097801e+00
1.152031e+00
1.099690e+00
1.153894e+00
1.048777e+00
1.099690e+00
1.050602e+00
1.101477e+00
1.099690e+00
1.153894e+00
1.101477e+00
1.155656e+00
1.050602e+00
1.101477e+00
1.052329e+00
1.103169e+00
1.101477e+00
1.155656e+00
1.103169e+00
1.157324e+00
1.052329e+00
1.103169e+00
1.053964e+00
1.104770e+00
1.103169e+00
1.157324e+00
1.104770e+00
1.158903e+00
1.053964e+00
1.104770e+00
1.055512e+00
1.106285e+00
1.104770e+00
1.158903e+00
1.106285e+00
1.160397e+00
1.055512e+00
1.106285e+00
1.056977e+00
1.107720e+00
1.106285e+00
1.160397e+00
1.107720e+00
1.161812e+00
1.056977e+00
1.107720e+00
1.058363e+00
1.109077e+00
1.107720e+00
1.161812e+00
1.109077e+00
1.163150e+00
1.058363e+00
1.109077e+00
1.059674e+00
1.110361e+00
1.109077e+00
1.163150e+00
1.110361e+00
1.164416e+00
1.059674e+00
1.110361e+00
1.060913e+00
1.111575e+00
1.110361e+00
1.164416e+00
1.111575e+00
1.165613e+00
1.060913e+00
1.111575e+00
1.062084e+00
1.112721e+00
1.111575e+00
1.165613e+00
1.112721e+00
1.166744e+00
1.062084e+00
1.112721e+00
1.063190e+00
1.113804e+00
1.112721e+00
1.166744e+00
1.113804e+00
1.167812e+00
1.063190e+00
1.113804e+00
1.064231e+00
1.114824e+00
1.113804e+00
1.167812e+00
1.114824e+00
1.168819e+00
1.064231e+00
1.114824e+00
1.065212e+00
1.115785e+00
1.114824e+00
1.168819e+00
1.115785e+00
1.169767e+00
1.065212e+00
1.115785e+00
1.066134e+00
1.116689e+00
1.115785e+00
1.169767e+00
1.116689e+00
1.170658e+00
1.066134e+00
1.116689e+00
1.067000e+00
1.117537e+00
1.116689e+00
1.170658e+00
1.117537e+00
1.171495e+00
1.067000e+00
1.117537e+00
1.067810e+00
1.118331e+00
1.117537e+00
1.171495e+00
1.118331e+00
1.172278e+00
1.067810e+00
1.118331e+00
1.068566e+00
1.119072e+00
1.118331e+00
1.172278e+00
1.119072e+00
1.173009e+00
1.068566e+00
1.119072e+00
1.069270e+00
1.119763e+00
1.119072e+00
1.173009e+00
1.119763e+00
1.173691e+00
1.069270e+00
1.119763e+00
1.069924e+00
1.120403e+00
1.119763e+00
1.173691e+00
1.120403e+00
1.174323e+00
1.069924e+00
1.120403e+00
1.070528e+00
1.120996e+00
1.120403e+00
1.174323e+00
1.120996e+00
1.174907e+00
1.070528e+00
1.120996e+00
1.071083e+00
1.121540e+00
1.120996e+00
1.174907e+00
1.121540e+00
1.175445e+00
1.071083e+00
1.121540e+00
1.071590e+00
1.122038e+00
1.121540e+00
1.175445e+00
1.122038e+00
1.175936e+00
1.071590e+00
1.122038e+00
1.072051e+00
1.122490e+00
1.122038e+00
1.175936e+00
1.122490e+00
1.176382e+00
1.072051e+00
1.122490e+00
1.072466e+00
1.122897e+00
1.122490e+00
1.176382e+00
1.122897e+00
1.176784e+00
1.072466e+00
1.122897e+00
1.072835e+00
1.123259e+00
1.122897e+00
1.176784e+00
1.123259e+00
1.177142e+00
1.072835e+00
1.123259e+00
1.073160e+00
1.123578e+00
1.123259e+00
1.177142e+00
1.123578e+00
1.177456e+00
1.073160e+00
1.123578e+00
1.073440e+00
1.123853e+00
1.123578e+00
1.177456e+00
1.123853e+00
1.177727e+00
1.073440e+00
1.123853e+00
1.073676e+00
1.124085e+00
1.123853e+00
1.177727e+00
1.124085e+00
1.177957e+00
1.073676e+00
1.124085e+00
1.073869e+00
1.124274e+00
1.124085e+00
1.177957e+00
1.124274e+00
1.178143e+00
1.073869e+00
1.124274e+00
1.074019e+00
1.124421e+00
1.124274e+00
1.178143e+00
1.124421e+00
1.178289e+00
1.074019e+00
1.124421e+00
1.074126e+00
1.124526e+00
1.124421e+00
1.178289e+00
1.124526e+00
1.178392e+00
1.074126e+00
1.124526e+00
1.074190e+00
1.124589e+00
1.124526e+00
1.178392e+00
1.124589e+00
1.178454e+00
1.074190e+00
1.124589e+00
1.074211e+00
1.124610e+00
1.124589e+00
1.178454e+00
1.124610e+00
1.178475e+00
</DataArray>
<DataArray type="Float32" Name="V3" format="ascii">
0.000000e+00
0.000000e+00
3.849156e-03
2.797509e-03
0.000000e+00
0.000000e+00
2.797509e-03
1.538831e-03
3.849156e-03
2.797509e-03
7.643115e-03
5.559943e-03
2.797509e-03
1.538831e-03
5.559943e-03
3.062653e-03
7.643115e-03
5.559943e-03
1.132554e-02
8.252008e-03
5.559943e-03
3.062653e-03
8.252008e-03
4.557119e-03
1.132554e-02
8.252008e-03
1.483844e-02
1.083738e-02
8.252008e-03
4.557119e-03
1.083738e-02
6.008433e-03
1.483844e-02
1.083738e-02
1.812160e-02
1.327796e-02
1.083738e-02
6.008433e-03
1.327796e-02
7.403228e-03
1.812160e-02
1.327796e-02
2.111296e-02
1.553234e-02
1.327796e-02
7.403228e-03
1.553234e-02
8.727404e-03
2.111296e-02
1.553234e-02
2.375032e-02
1.755312e-02
1.553234e-02
8.727404e-03
1.755312e-02
9.963507e-03
2.375032e-02
1.755312e-02
2.597545e-02
1.928251e-02
1.755312e-02
9.963507e-03
1.928251e-02
1.108618e-02
2.597545e-02
1.928251e-02
2.774087e-02
2.064720e-02
1.928251e-02
1.108618e-02
2.064720e-02
1.205500e-02
2.774087e-02
2.064720e-02
2.901534e-02
2.157610e-02
2.064720e-02
1.205500e-02
2.157610e-02
1.279544e-02
2.901534e-02
2.157610e-02
2.986347e-02
2.215681e-02
2.157610e-02
1.279544e-02
2.215681e-02
1.306792e-02
2.986347e-02
2.215681e-02
3.035695e-02
2.249748e-02
2.215681e-02
1.306792e-02
2.249748e-02
1.345395e-02
3.035695e-02
2.249748e-02
3.056448e-02
2.270159e-02
2.249748e-02
1.345395e-02
2.270159e-02
1.398917e-02
3.056448e-02
2.270159e-02
3.059624e-02
2.288934e-02
2.270159e-02
1.398917e-02
2.288934e-02
1.457700e-02
3.059624e-02
2.288934e-02
3.050535e-02
2.307001e-02
2.288934e-02
1.457700e-02
2.307001e-02
1.518319e-02
3.050535e-02
2.307001e-02
3.032943e-02
2.323352e-02
2.307001e-02
1.518319e-02
2.323352e-02
1.578237e-02
3.032943e-02
2.323352e-02
3.009168e-02
2.336968e-02
2.323352e-02
1.578237e-02
2.336968e-02
1.635543e-02
3.009168e-02
2.336968e-02
2.980705e-02
2.347180e-02
2.336968e-02
1.635543e-02
2.347180e-02
1.688828e-02
2.980705e-02
2.347180e-02
2.948536e-02
2.353607e-02
2.347180e-02
1.688828e-02
2.353607e-02
1.737119e-02
2.948536e-02
2.353607e-02
2.913316e-02
2.356061e-02
2.353607e-02
1.737119e-02
2.356061e-02
1.779792e-02
2.913316e-02
2.356061e-02
2.875490e-02
2.354474e-02
2.356061e-02
1.779792e-02
2.354474e-02
1.816493e-02
2.875490e-02
2.354474e-02
2.835361e-02
2.348853e-02
2.354474e-02
1.816493e-02
2.348853e-02
1.847070e-02
2.835361e-02
2.348853e-02
2.793137e-02
2.339254e-02
2.348853e-02
1.847070e-02
2.339254e-02
1.871511e-02
2.793137e-02
2.339254e-02
2.748964e-02
2.325763e-02
2.339254e-02
1.871511e-02
2.325763e-02
1.889908e-02
2.748964e-02
2.325763e-02
2.702941e-02
2.308487e-02
2.325763e-02
1.889908e-02
2.308487e-02
1.902418e-02
2.702941e-02
2.308487e-02
2.655139e-02
2.287546e-02
2.308487e-02
1.902418e-02
2.287546e-02
1.909246e-02
2.655139e-02
2.287546e-02
2.605610e-02
2.263068e-02
2.287546e-02
1.909246e-02
2.263068e-02
1.910621e-02
2.605610e-02
2.263068e-02
2.554395e-02
2.235188e-02
2.263068e-02
1.910621e-02
2.235188e-02
1.906788e-02
2.554395e-02
2.235188e-02
2.501528e-02
2.204039e-02
2.235188e-02
1.906788e-02
2.204039e-02
1.898000e-02
2.501528e-02
2.204039e-02
2.447037e-02
2.169756e-02
2.204039e-02
1.898000e-02
2.169756e-02
1.884507e-02
2.447037e-02
2.169756e-02
2.390953e-02
2.132474e-02
2.169756e-02
1.884507e-02
2.132474e-02
1.866558e-02
2.390953e-02
2.132474e-02
2.333304e-02
2.092324e-02
2.132474e-02
1.866558e-02
2.092324e-02
1.844394e-02
2.333304e-02
2.092324e-02
2.274121e-02
2.049434e-02
2.092324e-02
1.844394e-02
2.049434e-02
1.818247e-02
2.274121e-02
2.049434e-02
2.213435e-02
2.003929e-02
2.049434e-02
1.818247e-02
2.003929e-02
1.788341e-02
2.213435e-02
2.003929e-02
2.151281e-02
1.955931e-02
2.003929e-02
1.788341e-02
1.955931e-02
1.754887e-02
2.151281e-02
1.955931e-02
2.087694e-02
1.905557e-02
1.955931e-02
1.754887e-02
1.905557e-02
1.718090e-02
2.087694e-02
1.905557e-02
2.022713e-02
1.852923e-02
1.905557e-02
1.718090e-02
1.852923e-02
1.678143e-02
2.022713e-02
1.852923e-02
1.956377e-02
1.798138e-02
1.852923e-02
1.678143e-02
1.798138e-02
1.635229e-02
1.956377e-02
1.798138e-02
1.888729e-02
1.741311e-02
1.798138e-02
1.635229e-02
1.741311e-02
1.589523e-02
1.888729e-02
1.741311e-02
1.819812e-02
1.682545e-02
1.741311e-02
1.589523e-02
1.682545e-02
1.541192e-02
1.819812e-02
1.682545e-02
1.749672e-02
1.621941e-02
1.682545e-02
1.541192e-02
1.621941e-02
1.490392e-02
1.749672e-02
1.621941e-02
1.678355e-02
1.559597e-02
1.621941e-02
1.490392e-02
1.559597e-02
1.437275e-02
1.678355e-02
1.559597e-02
1.605909e-02
1.495608e-02
1.559597e-02
1.437275e-02
1.495608e-02
1.381985e-02
1.605909e-02
1.495608e-02
1.532383e-02
1.430067e-02
1.495608e-02
1.381985e-02
1.430067e-02
1.324659e-02
1.532383e-02
1.430067e-02
1.457827e-02
1.363065e-02
1.430067e-02
1.324659e-02
1.363065e-02
1.265428e-02
1.457827e-02
1.363065e-02
1.382292e-02
1.294689e-02
1.363065e-02
1.265428e-02
1.294689e-02
1.204420e-02
1.382292e-02
1.294689e-02
1.305829e-02
1.225025e-02
1.294689e-02
1.204420e-02
1.225025e-02
1.141754e-02
1.305829e-02
1.225025e-02
1.228490e-02
1.154158e-02
1.225025e-02
1.141754e-02
1.154158e-02
1.077550e-02
1.228490e-02
1.154158e-02
1.150328e-02
1.082170e-02
1.154158e-02
1.077550e-02
1.082170e-02
1.011919e-02
1.150328e-02
1.082170e-02
1.071397e-02
1.009142e-02
1.082170e-02
1.011919e-02
1.009142e-02
9.449713e-03
1.071397e-02
1.009142e-02
9.917493e-03
9.351537e-03
1.009142e-02
9.449713e-03
9.351537e-03
8.768129e-03
9.917493e-03
9.351537e-03
9.114396e-03
8.602837e-03
9.351537e-03
8.768129e-03
8.602837e-03
8.075472e-03
9.114396e-03
8.602837e-03
8.305220e-03
7.846090e-03
8.602837e-03
8.075472e-03
7.846090e-03
7.372749e-03
8.305220e-03
7.846090e-03
7.490510e-03
7.082059e-03
7.846090e-03
7.372749e-03
7.082059e-03
6.660943e-03
7.490510e-03
7.082059e-03
6.670815e-03
6.311495e-03
7.082059e-03
6.660943e-03
6.311495e-03
5.941017e-03
6.670815e-03
6.311495e-03
5.846683e-03
5.535144e-03
6.311495e-03
5.941017e-03
5.535144e-03
5.213918e-03
5.846683e-03
5.535144e-03
5.018667e-03
4.753743e-03
5.535144e-03
5.213918e-03
4.753743e-03
4.480574e-03
5.018667e-03
4.753743e-03
4.187318e-03
3.968026e-03
4.753743e-03
4.480574e-03
3.968026e-03
3.741901e-03
4.187318e-03
3.968026e-03
3.353191e-03
3.178718e-03
3.968026e-03
3.741901e-03
3.178718e-03
2.998805e-03
3.353191e-03
3.178718e-03
2.516840e-03
2.386543e-03
3.178718e-03
2.998805e-03
2.386543e-03
2.252181e-03
2.516840e-03
2.386543e-03
1.678820e-03
1.592221e-03
2.386543e-03
2.252181e-03
1.592221e-03
1.502918e-03
1.678820e-03
1.592221e-03
8.396884e-04
7.964678e-04
1.592221e-03
1.502918e-03
7.964678e-04
7.518977e-04
8.396884e-04
7.964678e-04
0.000000e+00
0.000000e+00
7.964678e-04
7.518977e-04
0.000000e+00
0.000000e+00
</DataArray>
<DataArray type="Float32" Name="V4" format="ascii">
8.500000e-01
9.250000e-01
8.500000e-01
9.250000e-01
9.250000e-01
1.000000e+00