<?xml version="1.0"?>
<VTKFile type="UnstructuredGrid" version="0.1" byte_order="LittleEndian" compressor="vtkZLibDataCompressor">
<UnstructuredGrid>
<Piece NumberOfPoints="504" NumberOfCells="126">
<Points>
<DataArray type="Float32" NumberOfComponents="3" format="ascii">
0.000000e+00 9.022994e-01 0.000000e+00
0.000000e+00 9.520259e-01 0.000000e+00
2.715982e-02 9.023208e-01 0.000000e+00
2.724465e-02 9.520459e-01 0.000000e+00
0.000000e+00 9.520259e-01 0.000000e+00
0.000000e+00 1.010000e+00 0.000000e+00
2.724465e-02 9.520459e-01 0.000000e+00
2.733556e-02 1.010000e+00 0.000000e+00
2.715982e-02 9.023208e-01 0.000000e+00
2.724465e-02 9.520459e-01 0.000000e+00
5.431082e-02 9.023814e-01 0.000000e+00
5.449286e-02 9.521059e-01 0.000000e+00
2.724465e-02 9.520459e-01 0.000000e+00
2.733556e-02 1.010000e+00 0.000000e+00
5.449286e-02 9.521059e-01 0.000000e+00
5.468437e-02 1.010000e+00 0.000000e+00
5.431082e-02 9.023814e-01 0.000000e+00
5.449286e-02 9.521059e-01 0.000000e+00
8.144310e-02 9.024820e-01 0.000000e+00
8.174829e-02 9.522075e-01 0.000000e+00
5.449286e-02 9.521059e-01 0.000000e+00
5.468437e-02 1.010000e+00 0.000000e+00
8.174829e-02 9.522075e-01 0.000000e+00
8.206052e-02 1.010000e+00 0.000000e+00
8.144310e-02 9.024820e-01 0.000000e+00
8.174829e-02 9.522075e-01 0.000000e+00
1.085450e-01 9.026217e-01 0.000000e+00
1.090145e-01 9.523526e-01 0.000000e+00
8.174829e-02 9.522075e-01 0.000000e+00
8.206052e-02 1.010000e+00 0.000000e+00
1.090145e-01 9.523526e-01 0.000000e+00
1.094793e-01 1.010000e+00 0.000000e+00
1.085450e-01 9.026217e-01 0.000000e+00
1.090145e-01 9.523526e-01 0.000000e+00
1.356021e-01 9.027976e-01 0.000000e+00
1.362947e-01 9.525429e-01 0.000000e+00
1.090145e-01 9.523526e-01 0.000000e+00
1.094793e-01 1.010000e+00 0.000000e+00
1.362947e-01 9.525429e-01 0.000000e+00
1.369579e-01 1.010000e+00 0.000000e+00
1.356021e-01 9.027976e-01 0.000000e+00
1.362947e-01 9.525429e-01 0.000000e+00
1.625958e-01 9.030037e-01 0.000000e+00
1.635912e-01 9.527789e-01 0.000000e+00
1.362947e-01 9.525429e-01 0.000000e+00
1.369579e-01 1.010000e+00 0.000000e+00
1.635912e-01 9.527789e-01 0.000000e+00
1.645153e-01 1.010000e+00 0.000000e+00
1.625958e-01 9.030037e-01 0.000000e+00
1.635912e-01 9.527789e-01 0.000000e+00
1.895025e-01 9.032284e-01 0.000000e+00
1.909038e-01 9.530577e-01 0.000000e+00
1.635912e-01 9.527789e-01 0.000000e+00
1.645153e-01 1.010000e+00 0.000000e+00
1.909038e-01 9.530577e-01 0.000000e+00
1.921725e-01 1.010000e+00 0.000000e+00
1.895025e-01 9.032284e-01 0.000000e+00
1.909038e-01 9.530577e-01 0.000000e+00
2.162924e-01 9.034499e-01 0.000000e+00
2.182274e-01 9.533689e-01 0.000000e+00
1.909038e-01 9.530577e-01 0.000000e+00
1.921725e-01 1.010000e+00 0.000000e+00
2.182274e-01 9.533689e-01 0.000000e+00
2.199506e-01 1.010000e+00 0.000000e+00
2.162924e-01 9.034499e-01 0.000000e+00
2.182274e-01 9.533689e-01 0.000000e+00
2.429290e-01 9.036304e-01 0.000000e+00
2.455463e-01 9.536886e-01 0.000000e+00
2.182274e-01 9.533689e-01 0.000000e+00
2.199506e-01 1.010000e+00 0.000000e+00
2.455463e-01 9.536886e-01 0.000000e+00
2.478682e-01 1.010000e+00 0.000000e+00
2.429290e-01 9.036304e-01 0.000000e+00
2.455463e-01 9.536886e-01 0.000000e+00
2.693690e-01 9.037061e-01 0.000000e+00
2.728253e-01 9.539669e-01 0.000000e+00
2.455463e-01 9.536886e-01 0.000000e+00
2.478682e-01 1.010000e+00 0.000000e+00
2.728253e-01 9.539669e-01 0.000000e+00
2.759364e-01 1.010000e+00 0.000000e+00
2.693690e-01 9.037061e-01 0.000000e+00
2.728253e-01 9.539669e-01 0.000000e+00
2.955635e-01 9.035750e-01 0.000000e+00
2.999946e-01 9.541042e-01 0.000000e+00
2.728253e-01 9.539669e-01 0.000000e+00
2.759364e-01 1.010000e+00 0.000000e+00
2.999946e-01 9.541042e-01 0.000000e+00
3.041499e-01 1.010000e+00 0.000000e+00
2.955635e-01 9.035750e-01 0.000000e+00
2.999946e-01 9.541042e-01 0.000000e+00
3.214508e-01 9.030666e-01 0.000000e+00
3.269485e-01 9.538950e-01 0.000000e+00
2.999946e-01 9.541042e-01 0.000000e+00
3.041499e-01 1.010000e+00 0.000000e+00
3.269485e-01 9.538950e-01 0.000000e+00
3.324617e-01 1.010000e+00 0.000000e+00
3.214508e-01 9.030666e-01 0.000000e+00
3.269485e-01 9.538950e-01 0.000000e+00
3.470564e-01 9.019888e-01 0.000000e+00
3.537297e-01 9.530734e-01 0.000000e+00
3.269485e-01 9.538950e-01 0.000000e+00
3.324617e-01 1.010000e+00 0.000000e+00
3.537297e-01 9.530734e-01 0.000000e+00
3.605291e-01 1.009557e+00 0.000000e+00
3.470564e-01 9.019888e-01 0.000000e+00
3.537297e-01 9.530734e-01 0.000000e+00
3.723433e-01 9.000569e-01 0.000000e+00
3.802709e-01 9.511632e-01 0.000000e+00
3.537297e-01 9.530734e-01 0.000000e+00
3.605291e-01 1.009557e+00 0.000000e+00
3.802709e-01 9.511632e-01 0.000000e+00
3.885440e-01 1.007112e+00 0.000000e+00
3.723433e-01 9.000569e-01 0.000000e+00
3.802709e-01 9.511632e-01 0.000000e+00
3.973313e-01 8.971810e-01 0.000000e+00
4.066469e-01 9.481412e-01 0.000000e+00
3.802709e-01 9.511632e-01 0.000000e+00
3.885440e-01 1.007112e+00 0.000000e+00
4.066469e-01 9.481412e-01 0.000000e+00
4.166186e-01 1.003399e+00 0.000000e+00
3.973313e-01 8.971810e-01 0.000000e+00
4.066469e-01 9.481412e-01 0.000000e+00
4.220650e-01 8.932836e-01 0.000000e+00
4.329052e-01 9.439513e-01 0.000000e+00
4.066469e-01 9.481412e-01 0.000000e+00
4.166186e-01 1.003399e+00 0.000000e+00
4.329052e-01 9.439513e-01 0.000000e+00
4.446279e-01 9.984976e-01 0.000000e+00
4.220650e-01 8.932836e-01 0.000000e+00
4.329052e-01 9.439513e-01 0.000000e+00
4.465586e-01 8.883768e-01 0.000000e+00
4.590157e-01 9.386404e-01 0.000000e+00
4.329052e-01 9.439513e-01 0.000000e+00
4.446279e-01 9.984976e-01 0.000000e+00
4.590157e-01 9.386404e-01 0.000000e+00
4.725056e-01 9.924676e-01 0.000000e+00
4.465586e-01 8.883768e-01 0.000000e+00
4.590157e-01 9.386404e-01 0.000000e+00
4.708152e-01 8.824833e-01 0.000000e+00
4.849314e-01 9.322502e-01 0.000000e+00
4.590157e-01 9.386404e-01 0.000000e+00
4.725056e-01 9.924676e-01 0.000000e+00
4.849314e-01 9.322502e-01 0.000000e+00
5.001871e-01 9.853443e-01 0.000000e+00
4.708152e-01 8.824833e-01 0.000000e+00
4.849314e-01 9.322502e-01 0.000000e+00
4.948277e-01 8.756330e-01 0.000000e+00
5.106090e-01 9.248234e-01 0.000000e+00
4.849314e-01 9.322502e-01 0.000000e+00
5.001871e-01 9.853443e-01 0.000000e+00
5.106090e-01 9.248234e-01 0.000000e+00
5.276164e-01 9.771628e-01 0.000000e+00
4.948277e-01 8.756330e-01 0.000000e+00
5.106090e-01 9.248234e-01 0.000000e+00
5.185825e-01 8.678565e-01 0.000000e+00
5.360115e-01 9.164012e-01 0.000000e+00
5.106090e-01 9.248234e-01 0.000000e+00
5.276164e-01 9.771628e-01 0.000000e+00
5.360115e-01 9.164012e-01 0.000000e+00
5.547452e-01 9.679590e-01 0.000000e+00
5.185825e-01 8.678565e-01 0.000000e+00
5.360115e-01 9.164012e-01 0.000000e+00
5.420625e-01 8.591843e-01 0.000000e+00
5.611071e-01 9.070232e-01 0.000000e+00
5.360115e-01 9.164012e-01 0.000000e+00
5.547452e-01 9.679590e-01 0.000000e+00
5.611071e-01 9.070232e-01 0.000000e+00
5.815331e-01 9.577701e-01 0.000000e+00
5.420625e-01 8.591843e-01 0.000000e+00
5.611071e-01 9.070232e-01 0.000000e+00
5.652491e-01 8.496459e-01 0.000000e+00
5.858682e-01 8.967272e-01 0.000000e+00
5.611071e-01 9.070232e-01 0.000000e+00
5.815331e-01 9.577701e-01 0.000000e+00
5.858682e-01 8.967272e-01 0.000000e+00
6.079458e-01 9.466330e-01 0.000000e+00
5.652491e-01 8.496459e-01 0.000000e+00
5.858682e-01 8.967272e-01 0.000000e+00
5.881230e-01 8.392705e-01 0.000000e+00
6.102704e-01 8.855489e-01 0.000000e+00
5.858682e-01 8.967272e-01 0.000000e+00
6.079458e-01 9.466330e-01 0.000000e+00
6.102704e-01 8.855489e-01 0.000000e+00
6.339544e-01 9.345838e-01 0.000000e+00
5.881230e-01 8.392705e-01 0.000000e+00
6.102704e-01 8.855489e-01 0.000000e+00
6.106646e-01 8.280861e-01 0.000000e+00
6.342914e-01 8.735223e-01 0.000000e+00
6.102704e-01 8.855489e-01 0.000000e+00
6.339544e-01 9.345838e-01 0.000000e+00
6.342914e-01 8.735223e-01 0.000000e+00
6.595340e-01 9.216575e-01 0.000000e+00
6.106646e-01 8.280861e-01 0.000000e+00
6.342914e-01 8.735223e-01 0.000000e+00
6.328549e-01 8.161204e-01 0.000000e+00
6.579110e-01 8.606798e-01 0.000000e+00
6.342914e-01 8.735223e-01 0.000000e+00
6.595340e-01 9.216575e-01 0.000000e+00
6.579110e-01 8.606798e-01 0.000000e+00
6.846629e-01 9.078876e-01 0.000000e+00
6.328549e-01 8.161204e-01 0.000000e+00
6.579110e-01 8.606798e-01 0.000000e+00
6.546754e-01 8.033999e-01 0.000000e+00
6.811106e-01 8.470520e-01 0.000000e+00
6.579110e-01 8.606798e-01 0.000000e+00
6.846629e-01 9.078876e-01 0.000000e+00
6.811106e-01 8.470520e-01 0.000000e+00
7.093220e-01 8.933061e-01 0.000000e+00
6.546754e-01 8.033999e-01 0.000000e+00
6.811106e-01 8.470520e-01 0.000000e+00
6.761080e-01 7.899506e-01 0.000000e+00
7.038728e-01 8.326681e-01 0.000000e+00
6.811106e-01 8.470520e-01 0.000000e+00
7.093220e-01 8.933061e-01 0.000000e+00
7.038728e-01 8.326681e-01 0.000000e+00
7.334941e-01 8.779434e-01 0.000000e+00
6.761080e-01 7.899506e-01 0.000000e+00
7.038728e-01 8.326681e-01 0.000000e+00
6.971357e-01 7.757976e-01 0.000000e+00
7.261812e-01 8.175559e-01 0.000000e+00
7.038728e-01 8.326681e-01 0.000000e+00
7.334941e-01 8.779434e-01 0.000000e+00
7.261812e-01 8.175559e-01 0.000000e+00
7.571635e-01 8.618286e-01 0.000000e+00
6.971357e-01 7.757976e-01 0.000000e+00
7.261812e-01 8.175559e-01 0.000000e+00
7.177417e-01 7.609653e-01 0.000000e+00
7.480206e-01 8.017420e-01 0.000000e+00
7.261812e-01 8.175559e-01 0.000000e+00
7.571635e-01 8.618286e-01 0.000000e+00
7.480206e-01 8.017420e-01 0.000000e+00
7.803157e-01 8.449896e-01 0.000000e+00
7.177417e-01 7.609653e-01 0.000000e+00
7.480206e-01 8.017420e-01 0.000000e+00
7.379104e-01 7.454775e-01 0.000000e+00
7.693765e-01 7.852520e-01 0.000000e+00
7.480206e-01 8.017420e-01 0.000000e+00
7.803157e-01 8.449896e-01 0.000000e+00
7.693765e-01 7.852520e-01 0.000000e+00
8.029373e-01 8.274529e-01 0.000000e+00
7.379104e-01 7.454775e-01 0.000000e+00
7.693765e-01 7.852520e-01 0.000000e+00
7.576266e-01 7.293573e-01 0.000000e+00
7.902350e-01 7.681104e-01 0.000000e+00
7.693765e-01 7.852520e-01 0.000000e+00
8.029373e-01 8.274529e-01 0.000000e+00
7.902350e-01 7.681104e-01 0.000000e+00
8.250155e-01 8.092442e-01 0.000000e+00
7.576266e-01 7.293573e-01 0.000000e+00
[...]
<PointData>
<DataArray type="Float32" Name="V1" format="ascii">
1.324191e+01
5.162833e+00
1.324059e+01
5.161511e+00
5.449892e+00
9.062017e-01
5.457180e+00
9.134893e-01
1.322915e+01
5.173466e+00
1.322439e+01
5.168708e+00
5.454919e+00
9.130501e-01
5.473211e+00
9.313425e-01
1.319990e+01
5.193376e+00
1.319104e+01
5.184513e+00
5.469271e+00
9.315846e-01
5.501185e+00
9.634980e-01
1.315030e+01
5.224961e+00
1.313506e+01
5.209719e+00
5.494347e+00
9.644594e-01
5.542728e+00
1.012840e+00
1.307356e+01
5.270716e+00
1.304883e+01
5.245994e+00
5.531443e+00
1.015156e+00
5.600717e+00
1.084430e+00
1.296036e+01
5.334157e+00
1.292227e+01
5.296065e+00
5.582513e+00
1.089272e+00
5.679359e+00
1.186118e+00
1.279898e+01
5.419932e+00
1.274306e+01
5.364016e+00
5.650265e+00
1.195595e+00
5.784582e+00
1.329912e+00
1.257599e+01
5.533809e+00
1.249781e+01
5.455628e+00
5.738097e+00
1.347873e+00
5.924526e+00
1.534302e+00
1.227799e+01
5.682333e+00
1.217434e+01
5.578685e+00
5.849660e+00
1.567992e+00
6.109893e+00
1.828225e+00
1.189541e+01
5.871856e+00
1.176645e+01
5.742896e+00
5.987234e+00
1.891732e+00
6.353553e+00
2.258051e+00
1.142895e+01
6.107868e+00
1.127990e+01
5.958821e+00
6.145512e+00
2.381081e+00
6.665458e+00
2.901027e+00
1.090152e+01
6.388629e+00
1.074405e+01
6.231166e+00
6.281625e+00
3.158310e+00
7.025940e+00
3.902625e+00
1.031477e+01
6.767524e+00
1.019087e+01
6.643617e+00
6.245374e+00
4.608979e+00
7.080859e+00
5.444464e+00
9.827903e+00
7.067576e+00
9.713529e+00
6.953201e+00
6.682638e+00
5.690844e+00
7.066288e+00
6.074494e+00
9.454760e+00
7.228039e+00
9.387596e+00
7.160876e+00
7.000155e+00
6.088187e+00
7.258325e+00
6.346357e+00
9.202067e+00
7.354439e+00
9.168675e+00
7.321047e+00
7.186016e+00
6.382520e+00
7.387346e+00
6.583851e+00
9.050443e+00
7.448542e+00
9.050290e+00
7.448388e+00
7.329046e+00
6.618170e+00
7.496549e+00
6.785674e+00
8.974244e+00
7.532848e+00
9.001006e+00
7.559609e+00
7.451773e+00
6.813749e+00
7.594577e+00
6.956552e+00
8.952724e+00
7.614211e+00
8.999137e+00
7.660625e+00
7.563366e+00
6.976609e+00
7.686625e+00
7.099868e+00
8.969575e+00
7.694371e+00
9.029506e+00
7.754302e+00
7.667023e+00
7.112467e+00
7.774273e+00
7.219717e+00
9.013085e+00
7.773105e+00
9.081811e+00
7.841832e+00
7.763948e+00
7.226158e+00
7.857911e+00
7.320120e+00
9.074850e+00
7.849777e+00
9.148857e+00
7.923785e+00
7.854658e+00
7.321813e+00
7.937518e+00
7.404673e+00
9.148791e+00
7.923802e+00
9.225497e+00
8.000508e+00
7.939484e+00
7.402861e+00
8.013020e+00
7.476397e+00
9.230453e+00
7.994762e+00
9.307976e+00
8.072285e+00
8.018732e+00
7.472086e+00
8.084392e+00
7.537746e+00
9.316552e+00
8.062407e+00
9.393535e+00
8.139390e+00
8.092716e+00
7.531715e+00
8.151681e+00
7.590680e+00
9.404664e+00
8.126620e+00
9.480139e+00
8.202096e+00
8.161756e+00
7.583516e+00
8.214991e+00
7.636751e+00
9.493002e+00
8.187379e+00
9.566295e+00
8.260673e+00
8.226173e+00
7.628892e+00
8.274469e+00
7.677187e+00
9.580268e+00
8.244730e+00
9.650924e+00
8.315387e+00
8.286278e+00
7.668955e+00
8.330284e+00
7.712960e+00
9.665529e+00
8.298764e+00
9.733257e+00
8.366492e+00
8.342368e+00
7.704589e+00
8.382621e+00
7.744842e+00
9.748133e+00
8.349599e+00
9.812763e+00
8.414229e+00
8.394722e+00
7.736501e+00
8.431667e+00
7.773446e+00
9.827637e+00
8.397372e+00
9.889091e+00
8.458825e+00
8.443599e+00
7.765256e+00
8.477609e+00
7.799266e+00
9.903762e+00
8.442228e+00
9.962024e+00
8.500490e+00
8.489242e+00
7.791311e+00
8.520630e+00
7.822699e+00
9.976347e+00
8.484315e+00
1.003145e+01
8.539419e+00
8.531872e+00
7.815033e+00
8.560903e+00
7.844064e+00
1.004532e+01
8.523782e+00
1.009733e+01
8.575794e+00
8.571695e+00
7.836725e+00
8.598594e+00
7.863624e+00
1.011068e+01
8.560770e+00
1.015969e+01
8.609781e+00
8.608899e+00
7.856633e+00
8.633859e+00
7.881593e+00
1.017246e+01
8.595420e+00
1.021857e+01
8.641532e+00
8.643657e+00
7.874960e+00
8.666845e+00
7.898147e+00
1.023074e+01
8.627864e+00
1.027407e+01
8.671190e+00
8.676128e+00
7.891874e+00
8.697688e+00
7.913435e+00
1.028563e+01
8.658226e+00
1.032629e+01
8.698885e+00
8.706457e+00
7.907519e+00
8.726516e+00
7.927578e+00
1.033723e+01
8.686626e+00
1.037534e+01
8.724735e+00
8.734779e+00
7.922012e+00
8.753447e+00
7.940680e+00
1.038566e+01
8.713174e+00
1.042134e+01
8.748850e+00
8.761215e+00
7.935455e+00
8.778591e+00
7.952831e+00
1.043107e+01
8.737973e+00
1.046442e+01
8.771331e+00
8.785878e+00
7.947934e+00
8.802049e+00
7.964105e+00
1.047356e+01
8.761121e+00
1.050471e+01
8.792271e+00
8.808872e+00
7.959524e+00
8.823914e+00
7.974567e+00
1.051327e+01
8.782707e+00
1.054232e+01
8.811754e+00
8.830291e+00
7.970290e+00
8.844275e+00
7.984274e+00
1.055033e+01
8.802815e+00
1.057737e+01
8.829858e+00
8.850223e+00
7.980288e+00
8.863210e+00
7.993275e+00
1.058485e+01
8.821522e+00
1.060998e+01
8.846656e+00
8.868748e+00
7.989567e+00
8.880793e+00
8.001613e+00
1.061694e+01
8.838899e+00
1.064025e+01
8.862211e+00
8.885937e+00
7.998171e+00
8.897092e+00
8.009326e+00
1.064671e+01
8.855013e+00
1.066828e+01
8.876584e+00
8.901859e+00
8.006138e+00
8.912169e+00
8.016448e+00
1.067426e+01
8.869923e+00
1.069417e+01
8.889831e+00
8.916575e+00
8.013504e+00
8.926081e+00
8.023009e+00
1.069969e+01
8.883685e+00
1.071801e+01
8.902000e+00
8.930141e+00
8.020297e+00
8.938879e+00
8.029035e+00
1.072308e+01
8.896351e+00
1.073987e+01
8.913138e+00
8.942608e+00
8.026546e+00
8.950612e+00
8.034551e+00
1.074452e+01
8.907967e+00
1.075984e+01
8.923285e+00
8.954021e+00
8.032276e+00
8.961322e+00
8.039577e+00
1.076407e+01
8.918576e+00
1.077797e+01
8.932478e+00
8.964425e+00
8.037507e+00
8.971049e+00
8.044132e+00
1.078181e+01
8.928215e+00
1.079434e+01
8.940752e+00
8.973856e+00
8.042260e+00
8.979828e+00
8.048232e+00
1.079779e+01
8.936921e+00
1.080900e+01
8.948135e+00
8.982348e+00
8.046552e+00
8.987690e+00
8.051894e+00
1.081207e+01
8.944723e+00
1.082200e+01
8.954654e+00
8.989933e+00
8.050399e+00
8.994663e+00
8.055129e+00
1.082471e+01
8.951650e+00
1.083339e+01
8.960333e+00
8.996638e+00
8.053813e+00
9.000773e+00
8.057949e+00
1.083574e+01
8.957727e+00
1.084320e+01
8.965192e+00
9.002486e+00
8.056808e+00
9.006041e+00
8.060363e+00
1.084520e+01
8.962974e+00
1.085147e+01
8.969248e+00
9.007498e+00
8.059393e+00
9.010486e+00
8.062381e+00
1.085313e+01
8.967411e+00
1.085823e+01
8.972514e+00
9.011692e+00
8.061577e+00
9.014122e+00
8.064008e+00
1.085955e+01
8.971052e+00
1.086350e+01
8.975003e+00
9.015082e+00
8.063369e+00
9.016964e+00
8.065251e+00
1.086448e+01
8.973911e+00
1.086730e+01
8.976724e+00
9.017681e+00
8.064774e+00
9.019020e+00
8.066113e+00
1.086795e+01
8.975998e+00
1.086963e+01
8.977681e+00
9.019497e+00
8.065796e+00
9.020299e+00
8.066598e+00
1.086996e+01
8.977319e+00
1.087052e+01
8.977879e+00
9.020536e+00
8.066439e+00
9.020803e+00
8.066707e+00
</DataArray>
<DataArray type="Float32" Name="V2" format="ascii">
9.022994e-01
9.520259e-01
9.027175e-01
9.524292e-01
9.520259e-01
1.010000e+00
9.524292e-01
1.010368e+00
9.027175e-01
9.524292e-01
9.039668e-01
9.536386e-01
9.524292e-01
1.010368e+00
9.536386e-01
1.011470e+00
9.039668e-01
9.536386e-01
9.060448e-01
9.556540e-01
9.536386e-01
1.011470e+00
9.556540e-01
1.013308e+00
9.060448e-01
9.556540e-01
9.089439e-01
9.584745e-01
9.556540e-01
1.013308e+00
9.584745e-01
1.015882e+00
9.089439e-01
9.584745e-01
9.126524e-01
9.620978e-01
9.584745e-01
1.015882e+00
9.620978e-01
1.019191e+00
9.126524e-01
9.620978e-01
9.171516e-01
9.665192e-01
9.620978e-01
1.019191e+00
9.665192e-01
1.023239e+00
9.171516e-01
9.665192e-01
9.224131e-01
9.717287e-01
9.665192e-01
1.023239e+00
9.717287e-01
1.028026e+00
9.224131e-01
9.717287e-01
9.283942e-01
9.777069e-01
9.717287e-01
1.028026e+00
9.777069e-01
1.033557e+00
9.283942e-01
9.777069e-01
9.350312e-01
9.844169e-01
9.777069e-01
1.033557e+00
9.844169e-01
1.039833e+00
9.350312e-01
9.844169e-01
9.422298e-01
9.917893e-01
9.844169e-01
1.039833e+00
9.917893e-01
1.046857e+00
9.422298e-01
9.917893e-01
9.498537e-01
9.996945e-01
9.917893e-01
1.046857e+00
9.996945e-01
1.054627e+00
9.498537e-01
9.996945e-01
9.576952e-01
1.007886e+00
9.996945e-01
1.054627e+00
1.007886e+00
1.063123e+00
9.576952e-01
1.007886e+00
9.655526e-01
1.016102e+00
1.007886e+00
1.063123e+00
1.016102e+00
1.071811e+00
9.655526e-01
1.016102e+00
9.731258e-01
1.023861e+00
1.016102e+00
1.071811e+00
1.023861e+00
1.079265e+00
9.731258e-01
1.023861e+00
9.803237e-01
1.031165e+00
1.023861e+00
1.079265e+00
1.031165e+00
1.086246e+00
9.803237e-01
1.031165e+00
9.870843e-01
1.037984e+00
1.031165e+00
1.086246e+00
1.037984e+00
1.092801e+00
9.870843e-01
1.037984e+00
9.934245e-01
1.044363e+00
1.037984e+00
1.092801e+00
1.044363e+00
1.098976e+00
9.934245e-01
1.044363e+00
9.993691e-01
1.050332e+00
1.044363e+00
1.098976e+00
1.050332e+00
1.104788e+00
9.993691e-01
1.050332e+00
1.004947e+00
1.055920e+00
1.050332e+00
1.104788e+00
1.055920e+00
1.110254e+00
1.004947e+00
1.055920e+00
1.010184e+00
1.061153e+00
1.055920e+00
1.110254e+00
1.061153e+00
1.115392e+00
1.010184e+00
1.061153e+00
1.015107e+00
1.066059e+00
1.061153e+00
1.115392e+00
1.066059e+00
1.120220e+00
1.015107e+00
1.066059e+00
1.019736e+00
1.070661e+00
1.066059e+00
1.120220e+00
1.070661e+00
1.124758e+00
1.019736e+00
1.070661e+00
1.024093e+00
1.074984e+00
1.070661e+00
1.124758e+00
1.074984e+00
1.129024e+00
1.024093e+00
1.074984e+00
1.028196e+00
1.079047e+00
1.074984e+00
1.129024e+00
1.079047e+00
1.133038e+00
1.028196e+00
1.079047e+00
1.032064e+00
1.082870e+00
1.079047e+00
1.133038e+00
1.082870e+00
1.136816e+00
1.032064e+00
1.082870e+00
1.035712e+00
1.086470e+00
1.082870e+00
1.136816e+00
1.086470e+00
1.140375e+00
1.035712e+00
1.086470e+00
1.039155e+00
1.089864e+00
1.086470e+00
1.140375e+00
1.089864e+00
1.143730e+00
1.039155e+00
1.089864e+00
1.042406e+00
1.093064e+00
1.089864e+00
1.143730e+00
1.093064e+00
1.146894e+00
1.042406e+00
1.093064e+00
1.045477e+00
1.096086e+00
1.093064e+00
1.146894e+00
1.096086e+00
1.149881e+00
1.045477e+00
1.096086e+00
1.048380e+00
1.098939e+00
1.096086e+00
1.149881e+00
1.098939e+00
1.152702e+00
1.048380e+00
1.098939e+00
1.051125e+00
1.101636e+00
1.098939e+00
1.152702e+00
1.101636e+00
1.155367e+00
1.051125e+00
1.101636e+00
1.053722e+00
1.104185e+00
1.101636e+00
1.155367e+00
1.104185e+00
1.157887e+00
1.053722e+00
1.104185e+00
1.056179e+00
1.106596e+00
1.104185e+00
1.157887e+00
1.106596e+00
1.160269e+00
1.056179e+00
1.106596e+00
1.058503e+00
1.108877e+00
1.106596e+00
1.160269e+00
1.108877e+00
1.162522e+00
1.058503e+00
1.108877e+00
1.060703e+00
1.111034e+00
1.108877e+00
1.162522e+00
1.111034e+00
1.164653e+00
1.060703e+00
1.111034e+00
1.062783e+00
1.113074e+00
1.111034e+00
1.164653e+00
1.113074e+00
1.166668e+00
1.062783e+00
1.113074e+00
1.064751e+00
1.115004e+00
1.113074e+00
1.166668e+00
1.115004e+00
1.168574e+00
1.064751e+00
1.115004e+00
1.066612e+00
1.116828e+00
1.115004e+00
1.168574e+00
1.116828e+00
1.170376e+00
1.066612e+00
1.116828e+00
1.068370e+00
1.118552e+00
1.116828e+00
1.170376e+00
1.118552e+00
1.172078e+00
1.068370e+00
1.118552e+00
1.070030e+00
1.120179e+00
1.118552e+00
1.172078e+00
1.120179e+00
1.173685e+00
1.070030e+00
1.120179e+00
1.071597e+00
1.121715e+00
1.120179e+00
1.173685e+00
1.121715e+00
1.175201e+00
1.071597e+00
1.121715e+00
1.073073e+00
1.123162e+00
1.121715e+00
1.175201e+00
1.123162e+00
1.176630e+00
1.073073e+00
1.123162e+00
1.074462e+00
1.124524e+00
1.123162e+00
1.176630e+00
1.124524e+00
1.177975e+00
1.074462e+00
1.124524e+00
1.075767e+00
1.125804e+00
1.124524e+00
1.177975e+00
1.125804e+00
1.179239e+00
1.075767e+00
1.125804e+00
1.076992e+00
1.127005e+00
1.125804e+00
1.179239e+00
1.127005e+00
1.180425e+00
1.076992e+00
1.127005e+00
1.078138e+00
1.128129e+00
1.127005e+00
1.180425e+00
1.128129e+00
1.181534e+00
1.078138e+00
1.128129e+00
1.079208e+00
1.129179e+00
1.128129e+00
1.181534e+00
1.129179e+00
1.182571e+00
1.079208e+00
1.129179e+00
1.080204e+00
1.130156e+00
1.129179e+00
1.182571e+00
1.130156e+00
1.183535e+00
1.080204e+00
1.130156e+00
1.081128e+00
1.131062e+00
1.130156e+00
1.183535e+00
1.131062e+00
1.184430e+00
1.081128e+00
1.131062e+00
1.081981e+00
1.131899e+00
1.131062e+00
1.184430e+00
1.131899e+00
1.185257e+00
1.081981e+00
1.131899e+00
1.082766e+00
1.132669e+00
1.131899e+00
1.185257e+00
1.132669e+00
1.186017e+00
1.082766e+00
1.132669e+00
1.083483e+00
1.133373e+00
1.132669e+00
1.186017e+00
1.133373e+00
1.186712e+00
1.083483e+00
1.133373e+00
1.084134e+00
1.134011e+00
1.133373e+00
1.186712e+00
1.134011e+00
1.187343e+00
1.084134e+00
1.134011e+00
1.084720e+00
1.134586e+00
1.134011e+00
1.187343e+00
1.134586e+00
1.187910e+00
1.084720e+00
1.134586e+00
1.085241e+00
1.135098e+00
1.134586e+00
1.187910e+00
1.135098e+00
1.188416e+00
1.085241e+00
1.135098e+00
1.085700e+00
1.135548e+00
1.135098e+00
1.188416e+00
1.135548e+00
1.188860e+00
1.085700e+00
1.135548e+00
1.086095e+00
1.135937e+00
1.135548e+00
1.188860e+00
1.135937e+00
1.189244e+00
1.086095e+00
1.135937e+00
1.086429e+00
1.136264e+00
1.135937e+00
1.189244e+00
1.136264e+00
1.189567e+00
1.086429e+00
1.136264e+00
1.086702e+00
1.136532e+00
1.136264e+00
1.189567e+00
1.136532e+00
1.189831e+00
1.086702e+00
1.136532e+00
1.086913e+00
1.136739e+00
1.136532e+00
1.189831e+00
1.136739e+00
1.190036e+00
1.086913e+00
1.136739e+00
1.087064e+00
1.136887e+00
1.136739e+00
1.190036e+00
1.136887e+00
1.190183e+00
1.087064e+00
1.136887e+00
1.087154e+00
1.136976e+00
1.136887e+00
1.190183e+00
1.136976e+00
1.190270e+00
1.087154e+00
1.136976e+00
1.087184e+00
1.137006e+00
1.136976e+00
1.190270e+00
1.137006e+00
1.190300e+00
</DataArray>
<DataArray type="Float32" Name="V3" format="ascii">
0.000000e+00
0.000000e+00
4.655891e-03
3.501024e-03
0.000000e+00
0.000000e+00
3.501024e-03
2.147066e-03
4.655891e-03
3.501024e-03
9.263306e-03
6.966558e-03
3.501024e-03
2.147066e-03
6.966558e-03
4.272052e-03
9.263306e-03
6.966558e-03
1.377280e-02
1.036115e-02
6.966558e-03
4.272052e-03
1.036115e-02
6.353669e-03
1.377280e-02
1.036115e-02
1.813355e-02
1.364908e-02
1.036115e-02
6.353669e-03
1.364908e-02
8.371759e-03
1.813355e-02
1.364908e-02
2.229253e-02
1.679424e-02
1.364908e-02
8.371759e-03
1.679424e-02
1.030782e-02
2.229253e-02
1.679424e-02
2.619403e-02
1.975969e-02
1.679424e-02
1.030782e-02
1.975969e-02
1.214513e-02
2.619403e-02
1.975969e-02
2.977959e-02
2.250685e-02
1.975969e-02
1.214513e-02
2.250685e-02
1.386829e-02
2.977959e-02
2.250685e-02
3.298878e-02
2.499412e-02
2.250685e-02
1.386829e-02
2.499412e-02
1.546190e-02
3.298878e-02
2.499412e-02
3.576157e-02
2.717428e-02
2.499412e-02
1.546190e-02
2.717428e-02
1.690752e-02
3.576157e-02
2.717428e-02
3.804321e-02
2.899046e-02
2.717428e-02
1.690752e-02
2.899046e-02
1.817873e-02
3.804321e-02
2.899046e-02
3.979190e-02
3.037204e-02
2.899046e-02
1.817873e-02
3.037204e-02
1.923323e-02
3.979190e-02
3.037204e-02
4.098605e-02
3.125765e-02
3.037204e-02
1.923323e-02
3.125765e-02
1.998866e-02
4.098605e-02
3.125765e-02
4.171283e-02
3.176888e-02
3.125765e-02
1.998866e-02
3.176888e-02
2.022487e-02
4.171283e-02
3.176888e-02
4.205062e-02
3.202080e-02
3.176888e-02
2.022487e-02
3.202080e-02
2.065938e-02
4.205062e-02
3.202080e-02
4.208822e-02
3.214208e-02
3.202080e-02
2.065938e-02
3.214208e-02
2.123645e-02
4.208822e-02
3.214208e-02
4.194039e-02
3.224834e-02
3.214208e-02
2.123645e-02
3.224834e-02
2.186283e-02
4.194039e-02
3.224834e-02
4.166281e-02
3.234480e-02
3.224834e-02
2.186283e-02
3.234480e-02
2.250249e-02
4.166281e-02
3.234480e-02
4.129472e-02
3.241989e-02
3.234480e-02
2.250249e-02
3.241989e-02
2.312813e-02
4.129472e-02
3.241989e-02
4.086013e-02
3.246229e-02
3.241989e-02
2.312813e-02
3.246229e-02
2.371885e-02
4.086013e-02
3.246229e-02
4.037446e-02
3.246434e-02
3.246229e-02
2.371885e-02
3.246434e-02
2.425895e-02
4.037446e-02
3.246434e-02
3.984775e-02
3.242139e-02
3.246434e-02
2.425895e-02
3.242139e-02
2.473736e-02
3.984775e-02
3.242139e-02
3.928662e-02
3.233092e-02
3.242139e-02
2.473736e-02
3.233092e-02
2.514684e-02
3.928662e-02
3.233092e-02
3.869547e-02
3.219172e-02
3.233092e-02
2.514684e-02
3.219172e-02
2.548317e-02
3.869547e-02
3.219172e-02
3.807723e-02
3.200350e-02
3.219172e-02
2.548317e-02
3.200350e-02
2.574438e-02
3.807723e-02
3.200350e-02
3.743386e-02
3.176657e-02
3.200350e-02
2.574438e-02
3.176657e-02
2.593019e-02
3.743386e-02
3.176657e-02
3.676664e-02
3.148166e-02
3.176657e-02
2.593019e-02
3.148166e-02
2.604149e-02
3.676664e-02
3.148166e-02
3.607644e-02
3.114982e-02
3.148166e-02
2.604149e-02
3.114982e-02
2.608003e-02
3.607644e-02
3.114982e-02
3.536385e-02
3.077229e-02
3.114982e-02
2.608003e-02
3.077229e-02
2.604811e-02
3.536385e-02
3.077229e-02
3.462931e-02
3.035048e-02
3.077229e-02
2.604811e-02
3.035048e-02
2.594840e-02
3.462931e-02
3.035048e-02
3.387314e-02
2.988588e-02
3.035048e-02
2.594840e-02
2.988588e-02
2.578376e-02
3.387314e-02
2.988588e-02
3.309567e-02
2.938005e-02
2.988588e-02
2.578376e-02
2.938005e-02
2.555720e-02
3.309567e-02
2.938005e-02
3.229717e-02
2.883458e-02
2.938005e-02
2.555720e-02
2.883458e-02
2.527171e-02
3.229717e-02
2.883458e-02
3.147795e-02
2.825108e-02
2.883458e-02
2.527171e-02
2.825108e-02
2.493032e-02
3.147795e-02
2.825108e-02
3.063837e-02
2.763114e-02
2.825108e-02
2.493032e-02
2.763114e-02
2.453594e-02
3.063837e-02
2.763114e-02
2.977878e-02
2.697634e-02
2.763114e-02
2.453594e-02
2.697634e-02
2.409145e-02
2.977878e-02
2.697634e-02
2.889960e-02
2.628825e-02
2.697634e-02
2.409145e-02
2.628825e-02
2.359959e-02
2.889960e-02
2.628825e-02
2.800128e-02
2.556839e-02
2.628825e-02
2.359959e-02
2.556839e-02
2.306303e-02
2.800128e-02
2.556839e-02
2.708431e-02
2.481827e-02
2.556839e-02
2.306303e-02
2.481827e-02
2.248430e-02
2.708431e-02
2.481827e-02
2.614920e-02
2.403935e-02
2.481827e-02
2.248430e-02
2.403935e-02
2.186586e-02
2.614920e-02
2.403935e-02
2.519652e-02
2.323306e-02
2.403935e-02
2.186586e-02
2.323306e-02
2.121001e-02
2.519652e-02
2.323306e-02
2.422685e-02
2.240080e-02
2.323306e-02
2.121001e-02
2.240080e-02
2.051901e-02
2.422685e-02
2.240080e-02
2.324080e-02
2.154393e-02
2.240080e-02
2.051901e-02
2.154393e-02
1.979497e-02
2.324080e-02
2.154393e-02
2.223900e-02
2.066377e-02
2.154393e-02
1.979497e-02
2.066377e-02
1.903993e-02
2.223900e-02
2.066377e-02
2.122212e-02
1.976164e-02
2.066377e-02
1.903993e-02
1.976164e-02
1.825585e-02
2.122212e-02
1.976164e-02
2.019084e-02
1.883880e-02
1.976164e-02
1.825585e-02
1.883880e-02
1.744461e-02
2.019084e-02
1.883880e-02
1.914583e-02
1.789648e-02
1.883880e-02
1.744461e-02
1.789648e-02
1.660800e-02
1.914583e-02
1.789648e-02
1.808782e-02
1.693590e-02
1.789648e-02
1.660800e-02
1.693590e-02
1.574776e-02
1.808782e-02
1.693590e-02
1.701751e-02
1.595825e-02
1.693590e-02
1.574776e-02
1.595825e-02
1.486555e-02
1.701751e-02
1.595825e-02
1.593565e-02
1.496471e-02
1.595825e-02
1.486555e-02
1.496471e-02
1.396300e-02
1.593565e-02
1.496471e-02
1.484296e-02
1.395640e-02
1.496471e-02
1.396300e-02
1.395640e-02
1.304166e-02
1.484296e-02
1.395640e-02
1.374019e-02
1.293447e-02
1.395640e-02
1.304166e-02
1.293447e-02
1.210306e-02
1.374019e-02
1.293447e-02
1.262810e-02
1.190003e-02
1.293447e-02
1.210306e-02
1.190003e-02
1.114867e-02
1.262810e-02
1.190003e-02
1.150745e-02
1.085416e-02
1.190003e-02
1.114867e-02
1.085416e-02
1.017992e-02
1.150745e-02
1.085416e-02
1.037901e-02
9.797957e-03
1.085416e-02
1.017992e-02
9.797957e-03
9.198230e-03
1.037901e-02
9.797957e-03
9.243534e-03
8.732478e-03
9.797957e-03
9.198230e-03
8.732478e-03
8.204962e-03
9.243534e-03
8.732478e-03
8.101805e-03
7.658784e-03
8.732478e-03
8.204962e-03
7.658784e-03
7.201468e-03
8.101805e-03
7.658784e-03
6.954597e-03
6.577922e-03
7.658784e-03
7.201468e-03
6.577922e-03
6.189075e-03
6.954597e-03
6.577922e-03
5.802689e-03
5.490933e-03
6.577922e-03
6.189075e-03
5.490933e-03
5.169089e-03
5.802689e-03
5.490933e-03
4.646859e-03
4.398847e-03
5.490933e-03
5.169089e-03
4.398847e-03
4.142800e-03
4.646859e-03
4.398847e-03
3.487892e-03
3.302690e-03
4.398847e-03
4.142800e-03
3.302690e-03
3.111485e-03
3.487892e-03
3.302690e-03
2.326570e-03
2.203485e-03
3.302690e-03
3.111485e-03
2.203485e-03
2.076408e-03
2.326570e-03
2.203485e-03
1.163678e-03
1.102250e-03
2.203485e-03
2.076408e-03
1.102250e-03
1.038829e-03
1.163678e-03
1.102250e-03
0.000000e+00
0.000000e+00
1.102250e-03
1.038829e-03
0.000000e+00
0.000000e+00
</DataArray>
<DataArray type="Float32" Name="V4" format="ascii">
8.500000e-01
9.250000e-01
8.500000e-01
9.250000e-01
9.250000e-01
1.000000e+00