<?xml version="1.0"?>
<VTKFile type="UnstructuredGrid" version="0.1" byte_order="LittleEndian" compressor="vtkZLibDataCompressor">
<UnstructuredGrid>
<Piece NumberOfPoints="504" NumberOfCells="126">
<Points>
<DataArray type="Float32" NumberOfComponents="3" format="ascii">
0.000000e+00 4.038758e-01 0.000000e+00
0.000000e+00 4.252393e-01 0.000000e+00
4.148302e-02 4.038844e-01 0.000000e+00
4.148150e-02 4.252405e-01 0.000000e+00
0.000000e+00 4.252393e-01 0.000000e+00
0.000000e+00 4.503516e-01 0.000000e+00
4.148150e-02 4.252405e-01 0.000000e+00
4.148171e-02 4.503516e-01 0.000000e+00
4.148302e-02 4.038844e-01 0.000000e+00
4.148150e-02 4.252405e-01 0.000000e+00
8.296503e-02 4.038962e-01 0.000000e+00
8.296192e-02 4.252468e-01 0.000000e+00
4.148150e-02 4.252405e-01 0.000000e+00
4.148171e-02 4.503516e-01 0.000000e+00
8.296192e-02 4.252468e-01 0.000000e+00
8.296222e-02 4.503516e-01 0.000000e+00
8.296503e-02 4.038962e-01 0.000000e+00
8.296192e-02 4.252468e-01 0.000000e+00
1.244445e-01 4.039156e-01 0.000000e+00
1.244398e-01 4.252572e-01 0.000000e+00
8.296192e-02 4.252468e-01 0.000000e+00
8.296222e-02 4.503516e-01 0.000000e+00
1.244398e-01 4.252572e-01 0.000000e+00
1.244402e-01 4.503516e-01 0.000000e+00
1.244445e-01 4.039156e-01 0.000000e+00
1.244398e-01 4.252572e-01 0.000000e+00
1.659202e-01 4.039427e-01 0.000000e+00
1.659139e-01 4.252719e-01 0.000000e+00
1.244398e-01 4.252572e-01 0.000000e+00
1.244402e-01 4.503516e-01 0.000000e+00
1.659139e-01 4.252719e-01 0.000000e+00
1.659145e-01 4.503516e-01 0.000000e+00
1.659202e-01 4.039427e-01 0.000000e+00
1.659139e-01 4.252719e-01 0.000000e+00
2.073908e-01 4.039775e-01 0.000000e+00
2.073830e-01 4.252908e-01 0.000000e+00
1.659139e-01 4.252719e-01 0.000000e+00
1.659145e-01 4.503516e-01 0.000000e+00
2.073830e-01 4.252908e-01 0.000000e+00
2.073838e-01 4.503516e-01 0.000000e+00
2.073908e-01 4.039775e-01 0.000000e+00
2.073830e-01 4.252908e-01 0.000000e+00
2.488550e-01 4.040201e-01 0.000000e+00
2.488458e-01 4.253138e-01 0.000000e+00
2.073830e-01 4.252908e-01 0.000000e+00
2.073838e-01 4.503516e-01 0.000000e+00
2.488458e-01 4.253138e-01 0.000000e+00
2.488467e-01 4.503516e-01 0.000000e+00
2.488550e-01 4.040201e-01 0.000000e+00
2.488458e-01 4.253138e-01 0.000000e+00
2.903116e-01 4.040703e-01 0.000000e+00
2.903010e-01 4.253410e-01 0.000000e+00
2.488458e-01 4.253138e-01 0.000000e+00
2.488467e-01 4.503516e-01 0.000000e+00
2.903010e-01 4.253410e-01 0.000000e+00
2.903021e-01 4.503516e-01 0.000000e+00
2.903116e-01 4.040703e-01 0.000000e+00
2.903010e-01 4.253410e-01 0.000000e+00
3.317593e-01 4.041281e-01 0.000000e+00
3.317472e-01 4.253723e-01 0.000000e+00
2.903010e-01 4.253410e-01 0.000000e+00
2.903021e-01 4.503516e-01 0.000000e+00
3.317472e-01 4.253723e-01 0.000000e+00
3.317487e-01 4.503516e-01 0.000000e+00
3.317593e-01 4.041281e-01 0.000000e+00
3.317472e-01 4.253723e-01 0.000000e+00
3.731966e-01 4.041936e-01 0.000000e+00
3.731833e-01 4.254077e-01 0.000000e+00
3.317472e-01 4.253723e-01 0.000000e+00
3.317487e-01 4.503516e-01 0.000000e+00
3.731833e-01 4.254077e-01 0.000000e+00
3.731850e-01 4.503516e-01 0.000000e+00
3.731966e-01 4.041936e-01 0.000000e+00
3.731833e-01 4.254077e-01 0.000000e+00
4.146223e-01 4.042666e-01 0.000000e+00
4.146077e-01 4.254472e-01 0.000000e+00
3.731833e-01 4.254077e-01 0.000000e+00
3.731850e-01 4.503516e-01 0.000000e+00
4.146077e-01 4.254472e-01 0.000000e+00
4.146098e-01 4.503516e-01 0.000000e+00
4.146223e-01 4.042666e-01 0.000000e+00
4.146077e-01 4.254472e-01 0.000000e+00
4.560349e-01 4.043471e-01 0.000000e+00
4.560192e-01 4.254908e-01 0.000000e+00
4.146077e-01 4.254472e-01 0.000000e+00
4.146098e-01 4.503516e-01 0.000000e+00
4.560192e-01 4.254908e-01 0.000000e+00
4.560218e-01 4.503516e-01 0.000000e+00
4.560349e-01 4.043471e-01 0.000000e+00
4.560192e-01 4.254908e-01 0.000000e+00
4.974331e-01 4.044351e-01 0.000000e+00
4.974163e-01 4.255384e-01 0.000000e+00
4.560192e-01 4.254908e-01 0.000000e+00
4.560218e-01 4.503516e-01 0.000000e+00
4.974163e-01 4.255384e-01 0.000000e+00
4.974194e-01 4.503516e-01 0.000000e+00
4.974331e-01 4.044351e-01 0.000000e+00
4.974163e-01 4.255384e-01 0.000000e+00
5.388154e-01 4.045304e-01 0.000000e+00
5.387976e-01 4.255900e-01 0.000000e+00
4.974163e-01 4.255384e-01 0.000000e+00
4.974194e-01 4.503516e-01 0.000000e+00
5.387976e-01 4.255900e-01 0.000000e+00
5.388013e-01 4.503516e-01 0.000000e+00
5.388154e-01 4.045304e-01 0.000000e+00
5.387976e-01 4.255900e-01 0.000000e+00
5.801803e-01 4.046331e-01 0.000000e+00
5.801616e-01 4.256455e-01 0.000000e+00
5.387976e-01 4.255900e-01 0.000000e+00
5.388013e-01 4.503516e-01 0.000000e+00
5.801616e-01 4.256455e-01 0.000000e+00
5.801661e-01 4.503516e-01 0.000000e+00
5.801803e-01 4.046331e-01 0.000000e+00
5.801616e-01 4.256455e-01 0.000000e+00
6.215263e-01 4.047430e-01 0.000000e+00
6.215069e-01 4.257050e-01 0.000000e+00
5.801616e-01 4.256455e-01 0.000000e+00
5.801661e-01 4.503516e-01 0.000000e+00
6.215069e-01 4.257050e-01 0.000000e+00
6.215123e-01 4.503516e-01 0.000000e+00
6.215263e-01 4.047430e-01 0.000000e+00
6.215069e-01 4.257050e-01 0.000000e+00
6.628519e-01 4.048601e-01 0.000000e+00
6.628319e-01 4.257684e-01 0.000000e+00
6.215069e-01 4.257050e-01 0.000000e+00
6.215123e-01 4.503516e-01 0.000000e+00
6.628319e-01 4.257684e-01 0.000000e+00
6.628383e-01 4.503516e-01 0.000000e+00
6.628519e-01 4.048601e-01 0.000000e+00
6.628319e-01 4.257684e-01 0.000000e+00
7.041553e-01 4.049843e-01 0.000000e+00
7.041350e-01 4.258357e-01 0.000000e+00
6.628319e-01 4.257684e-01 0.000000e+00
6.628383e-01 4.503516e-01 0.000000e+00
7.041350e-01 4.258357e-01 0.000000e+00
7.041426e-01 4.503516e-01 0.000000e+00
7.041553e-01 4.049843e-01 0.000000e+00
7.041350e-01 4.258357e-01 0.000000e+00
7.454350e-01 4.051156e-01 0.000000e+00
7.454146e-01 4.259067e-01 0.000000e+00
7.041350e-01 4.258357e-01 0.000000e+00
7.041426e-01 4.503516e-01 0.000000e+00
7.454146e-01 4.259067e-01 0.000000e+00
7.454236e-01 4.503516e-01 0.000000e+00
7.454350e-01 4.051156e-01 0.000000e+00
7.454146e-01 4.259067e-01 0.000000e+00
7.866891e-01 4.052537e-01 0.000000e+00
7.866690e-01 4.259816e-01 0.000000e+00
7.454146e-01 4.259067e-01 0.000000e+00
7.454236e-01 4.503516e-01 0.000000e+00
7.866690e-01 4.259816e-01 0.000000e+00
7.866798e-01 4.503516e-01 0.000000e+00
7.866891e-01 4.052537e-01 0.000000e+00
7.866690e-01 4.259816e-01 0.000000e+00
8.279161e-01 4.053988e-01 0.000000e+00
8.278965e-01 4.260602e-01 0.000000e+00
7.866690e-01 4.259816e-01 0.000000e+00
7.866798e-01 4.503516e-01 0.000000e+00
8.278965e-01 4.260602e-01 0.000000e+00
8.279093e-01 4.503516e-01 0.000000e+00
8.279161e-01 4.053988e-01 0.000000e+00
8.278965e-01 4.260602e-01 0.000000e+00
8.691138e-01 4.055505e-01 0.000000e+00
8.690953e-01 4.261424e-01 0.000000e+00
8.278965e-01 4.260602e-01 0.000000e+00
8.279093e-01 4.503516e-01 0.000000e+00
8.690953e-01 4.261424e-01 0.000000e+00
8.691106e-01 4.503516e-01 0.000000e+00
8.691138e-01 4.055505e-01 0.000000e+00
8.690953e-01 4.261424e-01 0.000000e+00
9.102806e-01 4.057089e-01 0.000000e+00
9.102635e-01 4.262283e-01 0.000000e+00
8.690953e-01 4.261424e-01 0.000000e+00
8.691106e-01 4.503516e-01 0.000000e+00
9.102635e-01 4.262283e-01 0.000000e+00
9.102819e-01 4.503516e-01 0.000000e+00
9.102806e-01 4.057089e-01 0.000000e+00
9.102635e-01 4.262283e-01 0.000000e+00
9.514142e-01 4.058739e-01 0.000000e+00
9.513994e-01 4.263178e-01 0.000000e+00
9.102635e-01 4.262283e-01 0.000000e+00
9.102819e-01 4.503516e-01 0.000000e+00
9.513994e-01 4.263178e-01 0.000000e+00
9.514215e-01 4.503516e-01 0.000000e+00
9.514142e-01 4.058739e-01 0.000000e+00
9.513994e-01 4.263178e-01 0.000000e+00
9.925126e-01 4.060454e-01 0.000000e+00
9.925010e-01 4.264109e-01 0.000000e+00
9.513994e-01 4.263178e-01 0.000000e+00
9.514215e-01 4.503516e-01 0.000000e+00
9.925010e-01 4.264109e-01 0.000000e+00
9.925276e-01 4.503516e-01 0.000000e+00
9.925126e-01 4.060454e-01 0.000000e+00
9.925010e-01 4.264109e-01 0.000000e+00
1.033574e+00 4.062232e-01 0.000000e+00
1.033566e+00 4.265075e-01 0.000000e+00
9.925010e-01 4.264109e-01 0.000000e+00
9.925276e-01 4.503516e-01 0.000000e+00
1.033566e+00 4.265075e-01 0.000000e+00
1.033598e+00 4.503516e-01 0.000000e+00
1.033574e+00 4.062232e-01 0.000000e+00
1.033566e+00 4.265075e-01 0.000000e+00
1.074595e+00 4.064072e-01 0.000000e+00
1.074593e+00 4.266077e-01 0.000000e+00
1.033566e+00 4.265075e-01 0.000000e+00
1.033598e+00 4.503516e-01 0.000000e+00
1.074593e+00 4.266077e-01 0.000000e+00
1.074632e+00 4.503516e-01 0.000000e+00
1.074595e+00 4.064072e-01 0.000000e+00
1.074593e+00 4.266077e-01 0.000000e+00
1.115574e+00 4.065974e-01 0.000000e+00
1.115579e+00 4.267113e-01 0.000000e+00
1.074593e+00 4.266077e-01 0.000000e+00
1.074632e+00 4.503516e-01 0.000000e+00
1.115579e+00 4.267113e-01 0.000000e+00
1.115627e+00 4.503516e-01 0.000000e+00
1.115574e+00 4.065974e-01 0.000000e+00
1.115579e+00 4.267113e-01 0.000000e+00
1.156508e+00 4.067936e-01 0.000000e+00
1.156523e+00 4.268184e-01 0.000000e+00
1.115579e+00 4.267113e-01 0.000000e+00
1.115627e+00 4.503516e-01 0.000000e+00
1.156523e+00 4.268184e-01 0.000000e+00
1.156581e+00 4.503516e-01 0.000000e+00
1.156508e+00 4.067936e-01 0.000000e+00
1.156523e+00 4.268184e-01 0.000000e+00
1.197394e+00 4.069958e-01 0.000000e+00
1.197421e+00 4.269289e-01 0.000000e+00
1.156523e+00 4.268184e-01 0.000000e+00
1.156581e+00 4.503516e-01 0.000000e+00
1.197421e+00 4.269289e-01 0.000000e+00
1.197494e+00 4.503516e-01 0.000000e+00
1.197394e+00 4.069958e-01 0.000000e+00
1.197421e+00 4.269289e-01 0.000000e+00
1.238229e+00 4.072039e-01 0.000000e+00
1.238272e+00 4.270430e-01 0.000000e+00
1.197421e+00 4.269289e-01 0.000000e+00
1.197494e+00 4.503516e-01 0.000000e+00
1.238272e+00 4.270430e-01 0.000000e+00
1.238363e+00 4.503516e-01 0.000000e+00
1.238229e+00 4.072039e-01 0.000000e+00
1.238272e+00 4.270430e-01 0.000000e+00
1.279010e+00 4.074177e-01 0.000000e+00
1.279074e+00 4.271607e-01 0.000000e+00
1.238272e+00 4.270430e-01 0.000000e+00
1.238363e+00 4.503516e-01 0.000000e+00
1.279074e+00 4.271607e-01 0.000000e+00
1.279187e+00 4.503516e-01 0.000000e+00
1.279010e+00 4.074177e-01 0.000000e+00
[...]
<PointData>
<DataArray type="Float32" Name="V1" format="ascii">
3.689095e+02
1.532013e+02
3.690488e+02
1.533406e+02
1.583065e+02
4.827245e+01
1.583624e+02
4.832838e+01
3.690907e+02
1.532557e+02
3.694279e+02
1.535928e+02
1.584101e+02
4.830829e+01
1.585685e+02
4.846673e+01
3.695408e+02
1.534491e+02
3.700904e+02
1.539986e+02
1.586583e+02
4.842034e+01
1.589305e+02
4.869255e+01
3.702705e+02
1.537926e+02
3.710340e+02
1.545562e+02
1.590605e+02
4.861806e+01
1.594460e+02
4.900353e+01
3.712807e+02
1.542867e+02
3.722613e+02
1.552672e+02
1.596173e+02
4.890144e+01
1.601166e+02
4.940071e+01
3.725743e+02
1.549327e+02
3.737750e+02
1.561333e+02
1.603300e+02
4.927109e+01
1.609441e+02
4.988522e+01
3.741547e+02
1.557325e+02
3.755789e+02
1.571567e+02
1.612003e+02
4.972796e+01
1.619308e+02
5.045843e+01
3.760258e+02
1.566882e+02
3.776775e+02
1.583399e+02
1.622306e+02
5.027326e+01
1.630793e+02
5.112192e+01
3.781925e+02
1.578024e+02
3.800763e+02
1.596862e+02
1.634235e+02
5.090845e+01
1.643926e+02
5.187754e+01
3.806605e+02
1.590782e+02
3.827812e+02
1.611989e+02
1.647822e+02
5.163528e+01
1.658744e+02
5.272740e+01
3.834360e+02
1.605188e+02
3.857994e+02
1.628822e+02
1.663103e+02
5.245576e+01
1.675285e+02
5.367389e+01
3.865263e+02
1.621284e+02
3.891387e+02
1.647407e+02
1.680120e+02
5.337219e+01
1.693595e+02
5.471970e+01
3.899395e+02
1.639111e+02
3.928079e+02
1.667795e+02
1.698917e+02
5.438718e+01
1.713724e+02
5.586785e+01
3.936845e+02
1.658720e+02
3.968167e+02
1.690042e+02
1.719548e+02
5.550364e+01
1.735729e+02
5.712168e+01
3.977714e+02
1.680164e+02
4.011761e+02
1.714210e+02
1.742070e+02
5.672483e+01
1.759671e+02
5.848491e+01
4.022112e+02
1.703505e+02
4.058977e+02
1.740370e+02
1.766546e+02
5.805437e+01
1.785619e+02
5.996166e+01
4.070158e+02
1.728809e+02
4.109945e+02
1.768596e+02
1.793047e+02
5.949628e+01
1.813649e+02
6.155649e+01
4.121984e+02
1.756150e+02
4.164806e+02
1.798971e+02
1.821648e+02
6.105498e+01
1.843842e+02
6.327439e+01
4.177734e+02
1.785607e+02
4.223713e+02
1.831586e+02
1.852436e+02
6.273540e+01
1.876291e+02
6.512091e+01
4.237562e+02
1.817270e+02
4.286833e+02
1.866540e+02
1.885502e+02
6.454293e+01
1.911094e+02
6.710215e+01
4.301638e+02
1.851234e+02
4.354345e+02
1.903941e+02
1.920947e+02
6.648356e+01
1.948360e+02
6.922484e+01
4.370144e+02
1.887606e+02
4.426444e+02
1.943906e+02
1.958883e+02
6.856389e+01
1.988209e+02
7.149642e+01
4.443273e+02
1.926501e+02
4.503337e+02
1.986565e+02
1.999431e+02
7.079124e+01
2.030770e+02
7.392518e+01
4.521238e+02
1.968045e+02
4.585248e+02
2.032056e+02
2.042722e+02
7.317373e+01
2.076187e+02
7.652028e+01
4.604261e+02
2.012378e+02
4.672414e+02
2.080532e+02
2.088902e+02
7.572041e+01
2.124617e+02
7.929198e+01
4.692581e+02
2.059649e+02
4.765090e+02
2.132159e+02
2.138129e+02
7.844140e+01
2.176232e+02
8.225177e+01
4.786450e+02
2.110027e+02
4.863541e+02
2.187118e+02
2.190577e+02
8.134805e+01
2.231223e+02
8.541262e+01
4.886132e+02
2.163692e+02
4.968047e+02
2.245607e+02
2.246437e+02
8.445320e+01
2.289797e+02
8.878924e+01
4.991904e+02
2.220846e+02
5.078898e+02
2.307841e+02
2.305920e+02
8.777147e+01
2.352190e+02
9.239845e+01
5.104045e+02
2.281711e+02
5.196391e+02
2.374056e+02
2.369257e+02
9.131959e+01
2.418658e+02
9.625965e+01
5.222842e+02
2.346533e+02
5.320820e+02
2.444511e+02
2.436706e+02
9.511693e+01
2.489491e+02
1.003954e+02
5.348572e+02
2.415587e+02
5.452475e+02
2.519489e+02
2.508553e+02
9.918608e+01
2.565015e+02
1.048322e+02
5.481499e+02
2.489177e+02
5.591622e+02
2.599300e+02
2.585117e+02
1.035537e+02
2.645597e+02
1.096017e+02
5.621853e+02
2.567650e+02
5.738490e+02
2.684287e+02
2.666755e+02
1.082516e+02
2.731657e+02
1.147418e+02
5.769811e+02
2.651394e+02
5.893242e+02
2.774824e+02
2.753873e+02
1.133182e+02
2.823677e+02
1.202986e+02
5.925470e+02
2.740856e+02
6.055941e+02
2.871328e+02
2.846929e+02
1.188003e+02
2.922218e+02
1.263291e+02
6.088797e+02
2.836547e+02
6.226504e+02
2.974253e+02
2.946451e+02
1.247561e+02
3.027937e+02
1.329047e+02
6.259582e+02
2.939061e+02
6.404624e+02
3.084103e+02
3.053041e+02
1.312585e+02
3.141612e+02
1.401155e+02
6.437354e+02
3.049088e+02
6.589689e+02
3.201423e+02
3.167400e+02
1.384006e+02
3.264172e+02
1.480779e+02
6.621283e+02
3.167437e+02
6.780650e+02
3.326804e+02
3.290334e+02
1.463029e+02
3.396740e+02
1.569435e+02
6.810048e+02
3.295050e+02
6.975863e+02
3.460865e+02
3.422768e+02
1.551245e+02
3.540671e+02
1.669148e+02
7.001658e+02
3.433016e+02
7.172880e+02
3.604238e+02
3.565722e+02
1.650807e+02
3.697588e+02
1.782673e+02
7.193219e+02
3.582574e+02
7.368201e+02
3.757557e+02
3.720207e+02
1.764719e+02
3.869373e+02
1.913885e+02
7.380553e+02
3.745201e+02
7.556949e+02
3.921596e+02
3.886836e+02
1.897406e+02
4.057943e+02
2.068513e+02
7.557263e+02
3.923234e+02
7.732356e+02
4.098327e+02
4.064575e+02
2.056154e+02
4.264374e+02
2.255953e+02
7.710916e+02
4.123527e+02
7.885253e+02
4.297864e+02
4.247543e+02
2.255892e+02
4.487834e+02
2.496183e+02
7.804240e+02
4.375926e+02
8.008532e+02
4.580218e+02
4.387183e+02
2.564021e+02
4.736134e+02
2.912971e+02
7.914995e+02
4.689206e+02
8.112184e+02
4.886395e+02
4.670013e+02
2.979319e+02
4.900959e+02
3.210265e+02
8.087501e+02
4.909563e+02
8.308367e+02
5.130428e+02
4.898783e+02
3.210946e+02
5.114590e+02
3.426753e+02
8.322129e+02
5.114627e+02
8.564484e+02
5.356981e+02
5.131386e+02
3.415876e+02
5.337181e+02
3.621671e+02
8.597524e+02
5.321617e+02
8.852221e+02
5.576313e+02
5.365313e+02
3.602956e+02
5.560415e+02
3.798059e+02
8.896301e+02
5.529242e+02
9.155008e+02
5.787949e+02
5.594807e+02
3.774901e+02
5.778403e+02
3.958497e+02
9.205281e+02
5.734155e+02
9.460829e+02
5.989703e+02
5.816291e+02
3.932907e+02
5.987523e+02
4.104139e+02
9.513890e+02
5.932748e+02
9.760175e+02
6.179033e+02
6.026783e+02
4.077596e+02
6.184766e+02
4.235580e+02
9.813454e+02
6.121690e+02
1.004534e+03
6.353573e+02
6.223717e+02
4.209246e+02
6.367577e+02
4.353106e+02
1.009681e+03
6.298062e+02
1.031001e+03
6.511264e+02
6.404872e+02
4.327910e+02
6.533783e+02
4.456822e+02
1.035806e+03
6.459381e+02
1.054906e+03
6.650383e+02
6.568346e+02
4.433499e+02
6.681563e+02
4.546717e+02
1.059237e+03
6.603572e+02
1.075832e+03
6.769519e+02
6.712540e+02
4.525847e+02
6.809415e+02
4.622722e+02
1.079585e+03
6.728934e+02
1.093447e+03
6.867553e+02
6.836134e+02
4.604749e+02
6.916121e+02
4.684737e+02
1.096540e+03
6.834091e+02
1.107493e+03
6.943621e+02
6.938064e+02
4.670000e+02
7.000724e+02
4.732660e+02
1.109864e+03
6.917964e+02
1.117778e+03
6.997096e+02
7.017500e+02
4.721408e+02
7.062494e+02
4.766402e+02
1.119383e+03
6.979730e+02
1.124166e+03
7.027561e+02
7.073826e+02
4.758810e+02
7.100917e+02
4.785900e+02
1.124975e+03
7.018801e+02
1.126575e+03
7.034803e+02
7.106627e+02
4.782077e+02
7.115673e+02
4.791123e+02
</DataArray>
<DataArray type="Float32" Name="V2" format="ascii">
4.038758e-01
4.252393e-01
4.047931e-01
4.261425e-01
4.252393e-01
4.503516e-01
4.261425e-01
4.512458e-01
4.047931e-01
4.261425e-01
4.075296e-01
4.288534e-01
4.261425e-01
4.512458e-01
4.288534e-01
4.539271e-01
4.075296e-01
4.288534e-01
4.120859e-01
4.333675e-01
4.288534e-01
4.539271e-01
4.333675e-01
4.583917e-01
4.120859e-01
4.333675e-01
4.184557e-01
4.396783e-01
4.333675e-01
4.583917e-01
4.396783e-01
4.646334e-01
4.184557e-01
4.396783e-01
4.266301e-01
4.477770e-01
4.396783e-01
4.646334e-01
4.477770e-01
4.726434e-01
4.266301e-01
4.477770e-01
4.365974e-01
4.576520e-01
4.477770e-01
4.726434e-01
4.576520e-01
4.824102e-01
4.365974e-01
4.576520e-01
4.483436e-01
4.692893e-01
4.576520e-01
4.824102e-01
4.692893e-01
4.939202e-01
4.483436e-01
4.692893e-01
4.618521e-01
4.826727e-01
4.692893e-01
4.939202e-01
4.826727e-01
5.071570e-01
4.618521e-01
4.826727e-01
4.771037e-01
4.977829e-01
4.826727e-01
5.071570e-01
4.977829e-01
5.221018e-01
4.771037e-01
4.977829e-01
4.940767e-01
5.145987e-01
4.977829e-01
5.221018e-01
5.145987e-01
5.387335e-01
4.940767e-01
5.145987e-01
5.127471e-01
5.330962e-01
5.145987e-01
5.387335e-01
5.330962e-01
5.570285e-01
5.127471e-01
5.330962e-01
5.330882e-01
5.532489e-01
5.330962e-01
5.570285e-01
5.532489e-01
5.769607e-01
5.330882e-01
5.532489e-01
5.550710e-01
5.750282e-01
5.532489e-01
5.769607e-01
5.750282e-01
5.985016e-01
5.550710e-01
5.750282e-01
5.786641e-01
5.984029e-01
5.750282e-01
5.985016e-01
5.984029e-01
6.216206e-01
5.786641e-01
5.984029e-01
6.038337e-01
6.233396e-01
5.984029e-01
6.216206e-01
6.233396e-01
6.462844e-01
6.038337e-01
6.233396e-01
6.305437e-01
6.498025e-01
6.233396e-01
6.462844e-01
6.498025e-01
6.724577e-01
6.305437e-01
6.498025e-01
6.587556e-01
6.777534e-01
6.498025e-01
6.724577e-01
6.777534e-01
7.001029e-01
6.587556e-01
6.777534e-01
6.884286e-01
7.071520e-01
6.777534e-01
7.001029e-01
7.071520e-01
7.291800e-01
6.884286e-01
7.071520e-01
7.195198e-01
7.379558e-01
7.071520e-01
7.291800e-01
7.379558e-01
7.596469e-01
7.195198e-01
7.379558e-01
7.519841e-01
7.701200e-01
7.379558e-01
7.596469e-01
7.701200e-01
7.914594e-01
7.519841e-01
7.701200e-01
7.857740e-01
8.035978e-01
7.701200e-01
7.914594e-01
8.035978e-01
8.245712e-01
7.857740e-01
8.035978e-01
8.208401e-01
8.383402e-01
8.035978e-01
8.245712e-01
8.383402e-01
8.589339e-01
8.208401e-01
8.383402e-01
8.571308e-01
8.742962e-01
8.383402e-01
8.589339e-01
8.742962e-01
8.944972e-01
8.571308e-01
8.742962e-01
8.945927e-01
9.114129e-01
8.742962e-01
8.944972e-01
9.114129e-01
9.312086e-01
8.945927e-01
9.114129e-01
9.331701e-01
9.496354e-01
9.114129e-01
9.312086e-01
9.496354e-01
9.690141e-01
9.331701e-01
9.496354e-01
9.728055e-01
9.889068e-01
9.496354e-01
9.690141e-01
9.889068e-01
1.007857e+00
9.728055e-01
9.889068e-01
1.013440e+00
1.029168e+00
9.889068e-01
1.007857e+00
1.029168e+00
1.047681e+00
1.013440e+00
1.029168e+00
1.055011e+00
1.070360e+00
1.029168e+00
1.047681e+00
1.070360e+00
1.088426e+00
1.055011e+00
1.070360e+00
1.097456e+00
1.112420e+00
1.070360e+00
1.088426e+00
1.112420e+00
1.130030e+00
1.097456e+00
1.112420e+00
1.140711e+00
1.155284e+00
1.112420e+00
1.130030e+00
1.155284e+00
1.172432e+00
1.140711e+00
1.155284e+00
1.184709e+00
1.198887e+00
1.155284e+00
1.172432e+00
1.198887e+00
1.215567e+00
1.184709e+00
1.198887e+00
1.229380e+00
1.243162e+00
1.198887e+00
1.215567e+00
1.243162e+00
1.259371e+00
1.229380e+00
1.243162e+00
1.274655e+00
1.288042e+00
1.243162e+00
1.259371e+00
1.288042e+00
1.303778e+00
1.274655e+00
1.288042e+00
1.320462e+00
1.333457e+00
1.288042e+00
1.303778e+00
1.333457e+00
1.348721e+00
1.320462e+00
1.333457e+00
1.366727e+00
1.379336e+00
1.333457e+00
1.348721e+00
1.379336e+00
1.394133e+00
1.366727e+00
1.379336e+00
1.413374e+00
1.425608e+00
1.379336e+00
1.394133e+00
1.425608e+00
1.439947e+00
1.413374e+00
1.425608e+00
1.460323e+00
1.472201e+00
1.425608e+00
1.439947e+00
1.472201e+00
1.486096e+00
1.460323e+00
1.472201e+00
1.507496e+00
1.519041e+00
1.472201e+00
1.486096e+00
1.519041e+00
1.532512e+00
1.507496e+00
1.519041e+00
1.554807e+00
1.566055e+00
1.519041e+00
1.532512e+00
1.566055e+00
1.579133e+00
1.554807e+00
1.566055e+00
1.602171e+00
1.613167e+00
1.566055e+00
1.579133e+00
1.613167e+00
1.625895e+00
1.602171e+00
1.613167e+00
1.649496e+00
1.660302e+00
1.613167e+00
1.625895e+00
1.660302e+00
1.672740e+00
1.649496e+00
1.660302e+00
1.696685e+00
1.707385e+00
1.660302e+00
1.672740e+00
1.707385e+00
1.719617e+00
1.696685e+00
1.707385e+00
1.743635e+00
1.754338e+00
1.707385e+00
1.719617e+00
1.754338e+00
1.766482e+00
1.743635e+00
1.754338e+00
1.790231e+00
1.801080e+00
1.754338e+00
1.766482e+00
1.801080e+00
1.813308e+00
1.790231e+00
1.801080e+00
1.836336e+00
1.847519e+00
1.801080e+00
1.813308e+00
1.847519e+00
1.860094e+00
1.836336e+00
1.847519e+00
1.881754e+00
1.893506e+00
1.847519e+00
1.860094e+00
1.893506e+00
1.906850e+00
1.881754e+00
1.893506e+00
1.926182e+00
1.938547e+00
1.893506e+00
1.906850e+00
1.938547e+00
1.952689e+00
1.926182e+00
1.938547e+00
1.968310e+00
1.980851e+00
1.938547e+00
1.952689e+00
1.980851e+00
1.995013e+00
1.968310e+00
1.980851e+00
2.007365e+00
2.020269e+00
1.980851e+00
1.995013e+00
2.020269e+00
2.034856e+00
2.007365e+00
2.020269e+00
2.043339e+00
2.056763e+00
2.020269e+00
2.034856e+00
2.056763e+00
2.071915e+00
2.043339e+00
2.056763e+00
2.076277e+00
2.090274e+00
2.056763e+00
2.071915e+00
2.090274e+00
2.106045e+00
2.076277e+00
2.090274e+00
2.106228e+00
2.120795e+00
2.090274e+00
2.106045e+00
2.120795e+00
2.137182e+00
2.106228e+00
2.120795e+00
2.133256e+00
2.148355e+00
2.120795e+00
2.137182e+00
2.148355e+00
2.165323e+00
2.133256e+00
2.148355e+00
2.157429e+00
2.173007e+00
2.148355e+00
2.165323e+00
2.173007e+00
2.190503e+00
2.157429e+00
2.173007e+00
2.178820e+00
2.194818e+00
2.173007e+00
2.190503e+00
2.194818e+00
2.212778e+00
2.178820e+00
2.194818e+00
2.197503e+00
2.213858e+00
2.194818e+00
2.212778e+00
2.213858e+00
2.232218e+00
2.197503e+00
2.213858e+00
2.213545e+00
2.230199e+00
2.213858e+00
2.232218e+00
2.230199e+00
2.248894e+00
2.213545e+00
2.230199e+00
2.227008e+00
2.243904e+00
2.230199e+00
2.248894e+00
2.243904e+00
2.262874e+00
2.227008e+00
2.243904e+00
2.237946e+00
2.255035e+00
2.243904e+00
2.262874e+00
2.255035e+00
2.274221e+00
2.237946e+00
2.255035e+00
2.246406e+00
2.263638e+00
2.255035e+00
2.274221e+00
2.263638e+00
2.282989e+00
2.246406e+00
2.263638e+00
2.252423e+00
2.269755e+00
2.263638e+00
2.282989e+00
2.269755e+00
2.289221e+00
2.252423e+00
2.269755e+00
2.256022e+00
2.273414e+00
2.269755e+00
2.289221e+00
2.273414e+00
2.292947e+00
2.256022e+00
2.273414e+00
2.257220e+00
2.274631e+00
2.273414e+00
2.292947e+00
2.274631e+00
2.294187e+00
</DataArray>
<DataArray type="Float32" Name="V3" format="ascii">
0.000000e+00
0.000000e+00
3.140101e-02
3.086707e-02
0.000000e+00
0.000000e+00
3.086707e-02
3.024124e-02
3.140101e-02
3.086707e-02
6.272934e-02
6.166199e-02
3.086707e-02
3.024124e-02
6.166199e-02
6.041091e-02
6.272934e-02
6.166199e-02
9.391187e-02
9.231235e-02
6.166199e-02
6.041091e-02
9.231235e-02
9.043746e-02
9.391187e-02
9.231235e-02
1.248760e-01
1.227461e-01
9.231235e-02
9.043746e-02
1.227461e-01
1.202495e-01
1.248760e-01
1.227461e-01
1.555492e-01
1.528913e-01
1.227461e-01
1.202495e-01
1.528913e-01
1.497759e-01
1.555492e-01
1.528913e-01
1.858594e-01
1.826767e-01
1.528913e-01
1.497759e-01
1.826767e-01
1.789459e-01
1.858594e-01
1.826767e-01
2.157351e-01
2.120310e-01
1.826767e-01
1.789459e-01
2.120310e-01
2.076891e-01
2.157351e-01
2.120310e-01
2.451049e-01
2.408836e-01
2.120310e-01
2.076891e-01
2.408836e-01
2.359355e-01
2.451049e-01
2.408836e-01
2.738982e-01
2.691647e-01
2.408836e-01
2.359355e-01
2.691647e-01
2.636158e-01
2.738982e-01
2.691647e-01
3.020453e-01
2.968047e-01
2.691647e-01
2.636158e-01
2.968047e-01
2.906614e-01
3.020453e-01
2.968047e-01
3.294767e-01
3.237350e-01
2.968047e-01
2.906614e-01
3.237350e-01
3.170042e-01
3.294767e-01
3.237350e-01
3.561243e-01
3.498878e-01
3.237350e-01
3.170042e-01
3.498878e-01
3.425770e-01
3.561243e-01
3.498878e-01
3.819203e-01
3.751963e-01
3.498878e-01
3.425770e-01
3.751963e-01
3.673136e-01
3.819203e-01
3.751963e-01
4.067985e-01
3.995943e-01
3.751963e-01
3.673136e-01
3.995943e-01
3.911485e-01
4.067985e-01
3.995943e-01
4.306933e-01
4.230170e-01
3.995943e-01
3.911485e-01
4.230170e-01
4.140176e-01
4.306933e-01
4.230170e-01
4.535405e-01
4.454006e-01
4.230170e-01
4.140176e-01
4.454006e-01
4.358575e-01
4.535405e-01
4.454006e-01
4.752768e-01
4.666825e-01
4.454006e-01
4.358575e-01
4.666825e-01
4.566063e-01
4.752768e-01
4.666825e-01
4.958406e-01
4.868013e-01
4.666825e-01
4.566063e-01
4.868013e-01
4.762033e-01
4.958406e-01
4.868013e-01
5.151714e-01
5.056972e-01
4.868013e-01
4.762033e-01
5.056972e-01
4.945889e-01
5.151714e-01
5.056972e-01
5.332102e-01
5.233116e-01
5.056972e-01
4.945889e-01
5.233116e-01
5.117054e-01
5.332102e-01
5.233116e-01
5.498994e-01
5.395874e-01
5.233116e-01
5.117054e-01
5.395874e-01
5.274961e-01
5.498994e-01
5.395874e-01
5.651832e-01
5.544691e-01
5.395874e-01
5.274961e-01
5.544691e-01
5.419061e-01
5.651832e-01
5.544691e-01
5.790072e-01
5.679030e-01
5.544691e-01
5.419061e-01
5.679030e-01
5.548821e-01
5.790072e-01
5.679030e-01
5.913189e-01
5.798369e-01
5.679030e-01
5.548821e-01
5.798369e-01
5.663727e-01
5.913189e-01
5.798369e-01
6.020675e-01
5.902205e-01
5.798369e-01
5.663727e-01
5.902205e-01
5.763279e-01
6.020675e-01
5.902205e-01
6.112040e-01
5.990053e-01
5.902205e-01
5.763279e-01
5.990053e-01
5.846999e-01
6.112040e-01
5.990053e-01
6.186814e-01
6.061447e-01
5.990053e-01
5.846999e-01
6.061447e-01
5.914427e-01
6.186814e-01
6.061447e-01
6.244544e-01
6.115942e-01
6.061447e-01
5.914427e-01
6.115942e-01
5.965124e-01
6.244544e-01
6.115942e-01
6.284800e-01
6.153111e-01
6.115942e-01
5.965124e-01
6.153111e-01
5.998671e-01
6.284800e-01
6.153111e-01
6.307171e-01
6.172549e-01
6.153111e-01
5.998671e-01
6.172549e-01
6.014671e-01
6.307171e-01
6.172549e-01
6.311267e-01
6.173875e-01
6.172549e-01
6.014671e-01
6.173875e-01
6.012752e-01
6.311267e-01
6.173875e-01
6.296719e-01
6.156727e-01
6.173875e-01
6.012752e-01
6.156727e-01
5.992562e-01
6.296719e-01
6.156727e-01
6.263178e-01
6.120767e-01
6.156727e-01
5.992562e-01
6.120767e-01
5.953776e-01
6.263178e-01
6.120767e-01
6.210319e-01
6.065680e-01
6.120767e-01
5.953776e-01
6.065680e-01
5.896095e-01
6.210319e-01
6.065680e-01
6.137838e-01
5.991174e-01
6.065680e-01
5.896095e-01
5.991174e-01
5.819245e-01
6.137838e-01
5.991174e-01
6.045451e-01
5.896983e-01
5.991174e-01
5.819245e-01
5.896983e-01
5.722982e-01
6.045451e-01
5.896983e-01
5.932896e-01
5.782863e-01
5.896983e-01
5.722982e-01
5.782863e-01
5.607091e-01
5.932896e-01
5.782863e-01
5.799932e-01
5.648596e-01
5.782863e-01
5.607091e-01
5.648596e-01
5.471387e-01
5.799932e-01
5.648596e-01
5.646337e-01
5.493988e-01
5.648596e-01
5.471387e-01
5.493988e-01
5.315721e-01
5.646337e-01
5.493988e-01
5.471911e-01
5.318869e-01
5.493988e-01
5.315721e-01
5.318869e-01
5.139978e-01
5.471911e-01
5.318869e-01
5.276470e-01
5.123095e-01
5.318869e-01
5.139978e-01
5.123095e-01
4.944081e-01
5.276470e-01
5.123095e-01
5.059852e-01
4.906543e-01
5.123095e-01
4.944081e-01
4.906543e-01
4.727999e-01
5.059852e-01
4.906543e-01
4.821914e-01
4.669117e-01
4.906543e-01
4.727999e-01
4.669117e-01
4.491751e-01
4.821914e-01
4.669117e-01
4.562547e-01
4.410752e-01
4.669117e-01
4.491751e-01
4.410752e-01
4.235428e-01
4.562547e-01
4.410752e-01
4.281708e-01
4.131452e-01
4.410752e-01
4.235428e-01
4.131452e-01
3.959214e-01
4.281708e-01
4.131452e-01
3.979676e-01
3.831491e-01
4.131452e-01
3.959214e-01
3.831491e-01
3.663291e-01
3.979676e-01
3.831491e-01
3.659124e-01
3.513193e-01
3.831491e-01
3.663291e-01
3.513193e-01
3.344364e-01
3.659124e-01
3.513193e-01
3.347144e-01
3.207271e-01
3.513193e-01
3.344364e-01
3.207271e-01
3.046957e-01
3.347144e-01
3.207271e-01
3.056700e-01
2.923885e-01
3.207271e-01
3.046957e-01
2.923885e-01
2.773084e-01
3.056700e-01
2.923885e-01
2.785115e-01
2.660197e-01
2.923885e-01
2.773084e-01
2.660197e-01
2.519351e-01
2.785115e-01
2.660197e-01
2.529131e-01
2.412878e-01
2.660197e-01
2.519351e-01
2.412878e-01
2.282449e-01
2.529131e-01
2.412878e-01
2.286040e-01
2.179047e-01
2.412878e-01
2.282449e-01
2.179047e-01
2.059413e-01
2.286040e-01
2.179047e-01
2.053510e-01
1.956183e-01
2.179047e-01
2.059413e-01
1.956183e-01
1.847609e-01
2.053510e-01
1.956183e-01
1.829567e-01
1.742143e-01
1.956183e-01
1.847609e-01
1.742143e-01
1.644774e-01
1.829567e-01
1.742143e-01
1.612556e-01
1.535137e-01
1.742143e-01
1.644774e-01
1.535137e-01
1.449005e-01
1.612556e-01
1.535137e-01
1.401096e-01
1.333682e-01
1.535137e-01
1.449005e-01
1.333682e-01
1.258739e-01
1.401096e-01
1.333682e-01
1.194038e-01
1.136563e-01
1.333682e-01
1.258739e-01
1.136563e-01
1.072703e-01
1.194038e-01
1.136563e-01
9.904274e-02
9.427884e-02
1.136563e-01
1.072703e-01
9.427884e-02
8.898741e-02
9.904274e-02
9.427884e-02
7.894686e-02
7.515452e-02
9.427884e-02
8.898741e-02
7.515452e-02
7.094309e-02
7.894686e-02
7.515452e-02
5.904895e-02
5.621655e-02
7.515452e-02
7.094309e-02
5.621655e-02
5.307153e-02
5.904895e-02
5.621655e-02
3.929146e-02
3.740916e-02
5.621655e-02
5.307153e-02
3.740916e-02
3.531923e-02
3.929146e-02
3.740916e-02
1.962383e-02
1.868452e-02
3.740916e-02
3.531923e-02
1.868452e-02
1.764165e-02
1.962383e-02
1.868452e-02
0.000000e+00
0.000000e+00
1.868452e-02
1.764165e-02
0.000000e+00
0.000000e+00
</DataArray>
<DataArray type="Float32" Name="V4" format="ascii">
8.500000e-01
9.250000e-01
8.500000e-01
9.250000e-01
9.250000e-01
1.000000e+00