<?xml version="1.0"?>
<VTKFile type="UnstructuredGrid" version="0.1" byte_order="LittleEndian" compressor="vtkZLibDataCompressor">
<UnstructuredGrid>
<Piece NumberOfPoints="504" NumberOfCells="126">
<Points>
<DataArray type="Float32" NumberOfComponents="3" format="ascii">
0.000000e+00 4.040800e-01 0.000000e+00
0.000000e+00 4.254753e-01 0.000000e+00
4.145220e-02 4.040887e-01 0.000000e+00
4.145066e-02 4.254765e-01 0.000000e+00
0.000000e+00 4.254753e-01 0.000000e+00
0.000000e+00 4.506250e-01 0.000000e+00
4.145066e-02 4.254765e-01 0.000000e+00
4.145085e-02 4.506250e-01 0.000000e+00
4.145220e-02 4.040887e-01 0.000000e+00
4.145066e-02 4.254765e-01 0.000000e+00
8.290337e-02 4.041005e-01 0.000000e+00
8.290023e-02 4.254828e-01 0.000000e+00
4.145066e-02 4.254765e-01 0.000000e+00
4.145085e-02 4.506250e-01 0.000000e+00
8.290023e-02 4.254828e-01 0.000000e+00
8.290050e-02 4.506250e-01 0.000000e+00
8.290337e-02 4.041005e-01 0.000000e+00
8.290023e-02 4.254828e-01 0.000000e+00
1.243520e-01 4.041199e-01 0.000000e+00
1.243473e-01 4.254933e-01 0.000000e+00
8.290023e-02 4.254828e-01 0.000000e+00
8.290050e-02 4.506250e-01 0.000000e+00
1.243473e-01 4.254933e-01 0.000000e+00
1.243477e-01 4.506250e-01 0.000000e+00
1.243520e-01 4.041199e-01 0.000000e+00
1.243473e-01 4.254933e-01 0.000000e+00
1.657968e-01 4.041470e-01 0.000000e+00
1.657906e-01 4.255080e-01 0.000000e+00
1.243473e-01 4.254933e-01 0.000000e+00
1.243477e-01 4.506250e-01 0.000000e+00
1.657906e-01 4.255080e-01 0.000000e+00
1.657911e-01 4.506250e-01 0.000000e+00
1.657968e-01 4.041470e-01 0.000000e+00
1.657906e-01 4.255080e-01 0.000000e+00
2.072366e-01 4.041819e-01 0.000000e+00
2.072288e-01 4.255269e-01 0.000000e+00
1.657906e-01 4.255080e-01 0.000000e+00
1.657911e-01 4.506250e-01 0.000000e+00
2.072288e-01 4.255269e-01 0.000000e+00
2.072295e-01 4.506250e-01 0.000000e+00
2.072366e-01 4.041819e-01 0.000000e+00
2.072288e-01 4.255269e-01 0.000000e+00
2.486700e-01 4.042245e-01 0.000000e+00
2.486607e-01 4.255500e-01 0.000000e+00
2.072288e-01 4.255269e-01 0.000000e+00
2.072295e-01 4.506250e-01 0.000000e+00
2.486607e-01 4.255500e-01 0.000000e+00
2.486616e-01 4.506250e-01 0.000000e+00
2.486700e-01 4.042245e-01 0.000000e+00
2.486607e-01 4.255500e-01 0.000000e+00
2.900958e-01 4.042748e-01 0.000000e+00
2.900851e-01 4.255772e-01 0.000000e+00
2.486607e-01 4.255500e-01 0.000000e+00
2.486616e-01 4.506250e-01 0.000000e+00
2.900851e-01 4.255772e-01 0.000000e+00
2.900861e-01 4.506250e-01 0.000000e+00
2.900958e-01 4.042748e-01 0.000000e+00
2.900851e-01 4.255772e-01 0.000000e+00
3.315126e-01 4.043327e-01 0.000000e+00
3.315005e-01 4.256085e-01 0.000000e+00
2.900851e-01 4.255772e-01 0.000000e+00
2.900861e-01 4.506250e-01 0.000000e+00
3.315005e-01 4.256085e-01 0.000000e+00
3.315018e-01 4.506250e-01 0.000000e+00
3.315126e-01 4.043327e-01 0.000000e+00
3.315005e-01 4.256085e-01 0.000000e+00
3.729191e-01 4.043983e-01 0.000000e+00
3.729056e-01 4.256440e-01 0.000000e+00
3.315005e-01 4.256085e-01 0.000000e+00
3.315018e-01 4.506250e-01 0.000000e+00
3.729056e-01 4.256440e-01 0.000000e+00
3.729073e-01 4.506250e-01 0.000000e+00
3.729191e-01 4.043983e-01 0.000000e+00
3.729056e-01 4.256440e-01 0.000000e+00
4.143140e-01 4.044714e-01 0.000000e+00
4.142992e-01 4.256835e-01 0.000000e+00
3.729056e-01 4.256440e-01 0.000000e+00
3.729073e-01 4.506250e-01 0.000000e+00
4.142992e-01 4.256835e-01 0.000000e+00
4.143013e-01 4.506250e-01 0.000000e+00
4.143140e-01 4.044714e-01 0.000000e+00
4.142992e-01 4.256835e-01 0.000000e+00
4.556958e-01 4.045520e-01 0.000000e+00
4.556799e-01 4.257271e-01 0.000000e+00
4.142992e-01 4.256835e-01 0.000000e+00
4.143013e-01 4.506250e-01 0.000000e+00
4.556799e-01 4.257271e-01 0.000000e+00
4.556823e-01 4.506250e-01 0.000000e+00
4.556958e-01 4.045520e-01 0.000000e+00
4.556799e-01 4.257271e-01 0.000000e+00
4.970632e-01 4.046401e-01 0.000000e+00
4.970461e-01 4.257748e-01 0.000000e+00
4.556799e-01 4.257271e-01 0.000000e+00
4.556823e-01 4.506250e-01 0.000000e+00
4.970461e-01 4.257748e-01 0.000000e+00
4.970491e-01 4.506250e-01 0.000000e+00
4.970632e-01 4.046401e-01 0.000000e+00
4.970461e-01 4.257748e-01 0.000000e+00
5.384147e-01 4.047355e-01 0.000000e+00
5.383966e-01 4.258265e-01 0.000000e+00
4.970461e-01 4.257748e-01 0.000000e+00
4.970491e-01 4.506250e-01 0.000000e+00
5.383966e-01 4.258265e-01 0.000000e+00
5.384002e-01 4.506250e-01 0.000000e+00
5.384147e-01 4.047355e-01 0.000000e+00
5.383966e-01 4.258265e-01 0.000000e+00
5.797487e-01 4.048383e-01 0.000000e+00
5.797298e-01 4.258821e-01 0.000000e+00
5.383966e-01 4.258265e-01 0.000000e+00
5.384002e-01 4.506250e-01 0.000000e+00
5.797298e-01 4.258821e-01 0.000000e+00
5.797342e-01 4.506250e-01 0.000000e+00
5.797487e-01 4.048383e-01 0.000000e+00
5.797298e-01 4.258821e-01 0.000000e+00
6.210639e-01 4.049484e-01 0.000000e+00
6.210443e-01 4.259417e-01 0.000000e+00
5.797298e-01 4.258821e-01 0.000000e+00
5.797342e-01 4.506250e-01 0.000000e+00
6.210443e-01 4.259417e-01 0.000000e+00
6.210495e-01 4.506250e-01 0.000000e+00
6.210639e-01 4.049484e-01 0.000000e+00
6.210443e-01 4.259417e-01 0.000000e+00
6.623586e-01 4.050657e-01 0.000000e+00
6.623384e-01 4.260052e-01 0.000000e+00
6.210443e-01 4.259417e-01 0.000000e+00
6.210495e-01 4.506250e-01 0.000000e+00
6.623384e-01 4.260052e-01 0.000000e+00
6.623446e-01 4.506250e-01 0.000000e+00
6.623586e-01 4.050657e-01 0.000000e+00
6.623384e-01 4.260052e-01 0.000000e+00
7.036312e-01 4.051900e-01 0.000000e+00
7.036107e-01 4.260725e-01 0.000000e+00
6.623384e-01 4.260052e-01 0.000000e+00
6.623446e-01 4.506250e-01 0.000000e+00
7.036107e-01 4.260725e-01 0.000000e+00
7.036181e-01 4.506250e-01 0.000000e+00
7.036312e-01 4.051900e-01 0.000000e+00
7.036107e-01 4.260725e-01 0.000000e+00
7.448800e-01 4.053215e-01 0.000000e+00
7.448594e-01 4.261437e-01 0.000000e+00
7.036107e-01 4.260725e-01 0.000000e+00
7.036181e-01 4.506250e-01 0.000000e+00
7.448594e-01 4.261437e-01 0.000000e+00
7.448683e-01 4.506250e-01 0.000000e+00
7.448800e-01 4.053215e-01 0.000000e+00
7.448594e-01 4.261437e-01 0.000000e+00
7.861034e-01 4.054598e-01 0.000000e+00
7.860830e-01 4.262186e-01 0.000000e+00
7.448594e-01 4.261437e-01 0.000000e+00
7.448683e-01 4.506250e-01 0.000000e+00
7.860830e-01 4.262186e-01 0.000000e+00
7.860935e-01 4.506250e-01 0.000000e+00
7.861034e-01 4.054598e-01 0.000000e+00
7.860830e-01 4.262186e-01 0.000000e+00
8.272995e-01 4.056050e-01 0.000000e+00
8.272796e-01 4.262973e-01 0.000000e+00
7.860830e-01 4.262186e-01 0.000000e+00
7.860935e-01 4.506250e-01 0.000000e+00
8.272796e-01 4.262973e-01 0.000000e+00
8.272923e-01 4.506250e-01 0.000000e+00
8.272995e-01 4.056050e-01 0.000000e+00
8.272796e-01 4.262973e-01 0.000000e+00
8.684664e-01 4.057570e-01 0.000000e+00
8.684476e-01 4.263796e-01 0.000000e+00
8.272796e-01 4.262973e-01 0.000000e+00
8.272923e-01 4.506250e-01 0.000000e+00
8.684476e-01 4.263796e-01 0.000000e+00
8.684627e-01 4.506250e-01 0.000000e+00
8.684664e-01 4.057570e-01 0.000000e+00
8.684476e-01 4.263796e-01 0.000000e+00
9.096023e-01 4.059156e-01 0.000000e+00
9.095850e-01 4.264657e-01 0.000000e+00
8.684476e-01 4.263796e-01 0.000000e+00
8.684627e-01 4.506250e-01 0.000000e+00
9.095850e-01 4.264657e-01 0.000000e+00
9.096032e-01 4.506250e-01 0.000000e+00
9.096023e-01 4.059156e-01 0.000000e+00
9.095850e-01 4.264657e-01 0.000000e+00
9.507051e-01 4.060808e-01 0.000000e+00
9.506901e-01 4.265553e-01 0.000000e+00
9.095850e-01 4.264657e-01 0.000000e+00
9.096032e-01 4.506250e-01 0.000000e+00
9.506901e-01 4.265553e-01 0.000000e+00
9.507120e-01 4.506250e-01 0.000000e+00
9.507051e-01 4.060808e-01 0.000000e+00
9.506901e-01 4.265553e-01 0.000000e+00
9.917727e-01 4.062525e-01 0.000000e+00
9.917608e-01 4.266485e-01 0.000000e+00
9.506901e-01 4.265553e-01 0.000000e+00
9.507120e-01 4.506250e-01 0.000000e+00
9.917608e-01 4.266485e-01 0.000000e+00
9.917872e-01 4.506250e-01 0.000000e+00
9.917727e-01 4.062525e-01 0.000000e+00
9.917608e-01 4.266485e-01 0.000000e+00
1.032803e+00 4.064305e-01 0.000000e+00
1.032795e+00 4.267452e-01 0.000000e+00
9.917608e-01 4.266485e-01 0.000000e+00
9.917872e-01 4.506250e-01 0.000000e+00
1.032795e+00 4.267452e-01 0.000000e+00
1.032827e+00 4.506250e-01 0.000000e+00
1.032803e+00 4.064305e-01 0.000000e+00
1.032795e+00 4.267452e-01 0.000000e+00
1.073793e+00 4.066148e-01 0.000000e+00
1.073791e+00 4.268455e-01 0.000000e+00
1.032795e+00 4.267452e-01 0.000000e+00
1.032827e+00 4.506250e-01 0.000000e+00
1.073791e+00 4.268455e-01 0.000000e+00
1.073830e+00 4.506250e-01 0.000000e+00
1.073793e+00 4.066148e-01 0.000000e+00
1.073791e+00 4.268455e-01 0.000000e+00
1.114741e+00 4.068052e-01 0.000000e+00
1.114746e+00 4.269492e-01 0.000000e+00
1.073791e+00 4.268455e-01 0.000000e+00
1.073830e+00 4.506250e-01 0.000000e+00
1.114746e+00 4.269492e-01 0.000000e+00
1.114794e+00 4.506250e-01 0.000000e+00
1.114741e+00 4.068052e-01 0.000000e+00
1.114746e+00 4.269492e-01 0.000000e+00
1.155644e+00 4.070017e-01 0.000000e+00
1.155659e+00 4.270565e-01 0.000000e+00
1.114746e+00 4.269492e-01 0.000000e+00
1.114794e+00 4.506250e-01 0.000000e+00
1.155659e+00 4.270565e-01 0.000000e+00
1.155718e+00 4.506250e-01 0.000000e+00
1.155644e+00 4.070017e-01 0.000000e+00
1.155659e+00 4.270565e-01 0.000000e+00
1.196500e+00 4.072042e-01 0.000000e+00
1.196527e+00 4.271672e-01 0.000000e+00
1.155659e+00 4.270565e-01 0.000000e+00
1.155718e+00 4.506250e-01 0.000000e+00
1.196527e+00 4.271672e-01 0.000000e+00
1.196600e+00 4.506250e-01 0.000000e+00
1.196500e+00 4.072042e-01 0.000000e+00
1.196527e+00 4.271672e-01 0.000000e+00
1.237304e+00 4.074125e-01 0.000000e+00
1.237347e+00 4.272815e-01 0.000000e+00
1.196527e+00 4.271672e-01 0.000000e+00
1.196600e+00 4.506250e-01 0.000000e+00
1.237347e+00 4.272815e-01 0.000000e+00
1.237438e+00 4.506250e-01 0.000000e+00
1.237304e+00 4.074125e-01 0.000000e+00
1.237347e+00 4.272815e-01 0.000000e+00
1.278054e+00 4.076266e-01 0.000000e+00
1.278118e+00 4.273993e-01 0.000000e+00
1.237347e+00 4.272815e-01 0.000000e+00
1.237438e+00 4.506250e-01 0.000000e+00
1.278118e+00 4.273993e-01 0.000000e+00
1.278231e+00 4.506250e-01 0.000000e+00
1.278054e+00 4.076266e-01 0.000000e+00
[...]
<PointData>
<DataArray type="Float32" Name="V1" format="ascii">
3.668076e+02
1.522404e+02
3.669461e+02
1.523789e+02
1.573205e+02
4.789015e+01
1.573761e+02
4.794577e+01
3.669878e+02
1.522944e+02
3.673231e+02
1.526297e+02
1.574235e+02
4.792578e+01
1.575811e+02
4.808333e+01
3.674356e+02
1.524868e+02
3.679820e+02
1.530332e+02
1.576704e+02
4.803718e+01
1.579410e+02
4.830784e+01
3.681613e+02
1.528284e+02
3.689206e+02
1.535877e+02
1.580703e+02
4.823375e+01
1.584536e+02
4.861704e+01
3.691661e+02
1.533197e+02
3.701412e+02
1.542948e+02
1.586240e+02
4.851548e+01
1.591204e+02
4.901192e+01
3.704527e+02
1.539620e+02
3.716467e+02
1.551561e+02
1.593327e+02
4.888299e+01
1.599434e+02
4.949363e+01
3.720245e+02
1.547573e+02
3.734409e+02
1.561737e+02
1.601982e+02
4.933721e+01
1.609245e+02
5.006353e+01
3.738855e+02
1.557077e+02
3.755282e+02
1.573504e+02
1.612228e+02
4.987934e+01
1.620666e+02
5.072319e+01
3.760405e+02
1.568157e+02
3.779140e+02
1.586891e+02
1.624091e+02
5.051085e+01
1.633727e+02
5.147444e+01
3.784952e+02
1.580843e+02
3.806043e+02
1.601934e+02
1.637602e+02
5.123347e+01
1.648461e+02
5.231940e+01
3.812557e+02
1.595169e+02
3.836061e+02
1.618673e+02
1.652798e+02
5.204919e+01
1.664910e+02
5.326042e+01
3.843293e+02
1.611174e+02
3.869274e+02
1.637154e+02
1.669719e+02
5.296032e+01
1.683118e+02
5.430019e+01
3.877241e+02
1.628901e+02
3.905767e+02
1.657428e+02
1.688412e+02
5.396943e+01
1.703135e+02
5.544171e+01
3.914489e+02
1.648400e+02
3.945640e+02
1.679551e+02
1.708928e+02
5.507943e+01
1.725017e+02
5.668830e+01
3.955137e+02
1.669725e+02
3.988997e+02
1.703585e+02
1.731325e+02
5.629356e+01
1.748826e+02
5.804367e+01
3.999295e+02
1.692936e+02
4.035958e+02
1.729599e+02
1.755664e+02
5.761542e+01
1.774629e+02
5.951191e+01
4.047081e+02
1.718098e+02
4.086650e+02
1.757667e+02
1.782017e+02
5.904900e+01
1.802503e+02
6.109755e+01
4.098627e+02
1.745286e+02
4.141214e+02
1.787873e+02
1.810460e+02
6.059871e+01
1.832528e+02
6.280557e+01
4.154076e+02
1.774579e+02
4.199803e+02
1.820306e+02
1.841076e+02
6.226944e+01
1.864796e+02
6.464147e+01
4.213581e+02
1.806064e+02
4.262581e+02
1.855065e+02
1.873958e+02
6.406656e+01
1.899406e+02
6.661132e+01
4.277310e+02
1.839839e+02
4.329728e+02
1.892258e+02
1.909207e+02
6.599602e+01
1.936465e+02
6.872183e+01
4.345444e+02
1.876008e+02
4.401436e+02
1.932001e+02
1.946932e+02
6.806440e+01
1.976092e+02
7.098041e+01
4.418177e+02
1.914687e+02
4.477912e+02
1.974421e+02
1.987254e+02
7.027898e+01
2.018417e+02
7.339528e+01
4.495718e+02
1.956000e+02
4.559378e+02
2.019659e+02
2.030305e+02
7.264784e+01
2.063582e+02
7.597557e+01
4.578290e+02
2.000085e+02
4.646070e+02
2.067865e+02
2.076228e+02
7.517998e+01
2.111744e+02
7.873150e+01
4.666130e+02
2.047094e+02
4.738241e+02
2.119205e+02
2.125182e+02
7.788547e+01
2.163073e+02
8.167451e+01
4.759487e+02
2.097191e+02
4.836155e+02
2.173858e+02
2.177340e+02
8.077562e+01
2.217759e+02
8.481750e+01
4.858625e+02
2.150558e+02
4.940089e+02
2.232022e+02
2.232891e+02
8.386323e+01
2.276010e+02
8.817513e+01
4.963817e+02
2.207395e+02
5.050332e+02
2.293911e+02
2.292045e+02
8.716283e+01
2.338059e+02
9.176417e+01
5.075342e+02
2.267924e+02
5.167177e+02
2.359759e+02
2.355033e+02
9.069112e+01
2.404161e+02
9.560392e+01
5.193483e+02
2.332388e+02
5.290918e+02
2.429823e+02
2.422111e+02
9.446739e+01
2.474606e+02
9.971691e+01
5.318514e+02
2.401061e+02
5.421839e+02
2.504385e+02
2.493563e+02
9.851416e+01
2.549717e+02
1.041296e+02
5.450697e+02
2.474247e+02
5.560205e+02
2.583755e+02
2.569707e+02
1.028580e+02
2.629861e+02
1.088734e+02
5.590258e+02
2.552290e+02
5.706240e+02
2.668271e+02
2.650900e+02
1.075307e+02
2.715455e+02
1.139862e+02
5.737371e+02
2.635577e+02
5.860103e+02
2.758309e+02
2.737544e+02
1.125705e+02
2.806980e+02
1.195142e+02
5.892127e+02
2.724554e+02
6.021854e+02
2.854281e+02
2.830097e+02
1.180243e+02
2.904995e+02
1.255142e+02
6.054490e+02
2.819729e+02
6.191401e+02
2.956640e+02
2.929083e+02
1.239501e+02
3.010156e+02
1.320574e+02
6.224243e+02
2.921695e+02
6.368434e+02
3.065886e+02
3.035105e+02
1.304208e+02
3.123237e+02
1.392341e+02
6.400909e+02
3.031140e+02
6.552332e+02
3.182563e+02
3.148858e+02
1.375294e+02
3.245167e+02
1.471603e+02
6.583650e+02
3.148870e+02
6.742038e+02
3.307258e+02
3.271149e+02
1.453965e+02
3.377066e+02
1.559882e+02
6.771135e+02
3.275825e+02
6.935898e+02
3.440587e+02
3.402897e+02
1.541811e+02
3.520285e+02
1.659200e+02
6.961365e+02
3.413090e+02
7.131453e+02
3.583178e+02
3.545119e+02
1.640990e+02
3.676445e+02
1.772316e+02
7.151432e+02
3.561903e+02
7.325190e+02
3.735661e+02
3.698814e+02
1.754511e+02
3.847420e+02
1.903117e+02
7.337140e+02
3.723742e+02
7.512218e+02
3.898821e+02
3.864575e+02
1.886819e+02
4.035106e+02
2.057350e+02
7.512037e+02
3.900985e+02
7.685745e+02
4.074693e+02
4.041303e+02
2.045267e+02
4.240521e+02
2.244484e+02
7.663477e+02
4.100705e+02
7.836567e+02
4.273796e+02
4.222890e+02
2.245118e+02
4.462769e+02
2.484998e+02
7.754708e+02
4.353505e+02
7.957855e+02
4.556652e+02
4.363126e+02
2.556177e+02
4.708675e+02
2.901725e+02
7.865649e+02
4.663128e+02
8.061595e+02
4.859075e+02
4.643516e+02
2.964788e+02
4.872755e+02
3.194027e+02
8.037852e+02
4.881401e+02
8.257501e+02
5.101050e+02
4.870870e+02
3.194447e+02
5.085146e+02
3.408723e+02
8.271485e+02
5.085063e+02
8.512361e+02
5.325939e+02
5.102002e+02
3.397755e+02
5.306280e+02
3.602033e+02
8.545337e+02
5.290642e+02
8.798354e+02
5.543660e+02
5.334304e+02
3.583367e+02
5.527928e+02
3.776991e+02
8.842219e+02
5.496807e+02
9.099125e+02
5.753712e+02
5.562134e+02
3.753949e+02
5.744309e+02
3.936125e+02
9.149095e+02
5.700227e+02
9.402790e+02
5.953923e+02
5.781962e+02
3.910690e+02
5.951845e+02
4.080573e+02
9.455499e+02
5.897331e+02
9.699944e+02
6.141776e+02
5.990841e+02
4.054207e+02
6.147560e+02
4.210927e+02
9.752848e+02
6.084821e+02
9.982957e+02
6.314930e+02
6.186236e+02
4.184779e+02
6.328930e+02
4.327473e+02
1.003405e+03
6.259811e+02
1.024559e+03
6.471352e+02
6.365952e+02
4.302461e+02
6.493806e+02
4.430315e+02
1.029328e+03
6.419846e+02
1.048277e+03
6.609336e+02
6.528110e+02
4.407169e+02
6.640390e+02
4.519449e+02
1.052575e+03
6.562875e+02
1.069037e+03
6.727493e+02
6.671131e+02
4.498739e+02
6.767197e+02
4.594805e+02
1.072760e+03
6.687214e+02
1.086510e+03
6.824714e+02
6.793709e+02
4.576973e+02
6.873024e+02
4.656288e+02
1.089579e+03
6.791509e+02
1.100443e+03
6.900148e+02
6.894796e+02
4.641668e+02
6.956926e+02
4.703798e+02
1.102796e+03
6.874689e+02
1.110645e+03
6.953174e+02
6.973570e+02
4.692636e+02
7.018183e+02
4.737248e+02
1.112237e+03
6.935943e+02
1.116981e+03
6.983382e+02
7.029426e+02
4.729716e+02
7.056286e+02
4.756577e+02
1.117784e+03
6.974690e+02
1.119371e+03
6.990561e+02
7.061951e+02
4.752784e+02
7.070920e+02
4.761753e+02
</DataArray>
<DataArray type="Float32" Name="V2" format="ascii">
4.040800e-01
4.254753e-01
4.049965e-01
4.263777e-01
4.254753e-01
4.506250e-01
4.263777e-01
4.515184e-01
4.049965e-01
4.263777e-01
4.077305e-01
4.290861e-01
4.263777e-01
4.515184e-01
4.290861e-01
4.541971e-01
4.077305e-01
4.290861e-01
4.122827e-01
4.335960e-01
4.290861e-01
4.541971e-01
4.335960e-01
4.586575e-01
4.122827e-01
4.335960e-01
4.186467e-01
4.399010e-01
4.335960e-01
4.586575e-01
4.399010e-01
4.648932e-01
4.186467e-01
4.399010e-01
4.268137e-01
4.479921e-01
4.399010e-01
4.648932e-01
4.479921e-01
4.728955e-01
4.268137e-01
4.479921e-01
4.367720e-01
4.578579e-01
4.479921e-01
4.728955e-01
4.578579e-01
4.826530e-01
4.367720e-01
4.578579e-01
4.485076e-01
4.694844e-01
4.578579e-01
4.826530e-01
4.694844e-01
4.941520e-01
4.485076e-01
4.694844e-01
4.620038e-01
4.828553e-01
4.694844e-01
4.941520e-01
4.828553e-01
5.073761e-01
4.620038e-01
4.828553e-01
4.772415e-01
4.979515e-01
4.828553e-01
5.073761e-01
4.979515e-01
5.223066e-01
4.772415e-01
4.979515e-01
4.941991e-01
5.147516e-01
4.979515e-01
5.223066e-01
5.147516e-01
5.389224e-01
4.941991e-01
5.147516e-01
5.128524e-01
5.332318e-01
5.147516e-01
5.389224e-01
5.332318e-01
5.571998e-01
5.128524e-01
5.332318e-01
5.331750e-01
5.533657e-01
5.332318e-01
5.571998e-01
5.533657e-01
5.771128e-01
5.331750e-01
5.533657e-01
5.551378e-01
5.751247e-01
5.533657e-01
5.771128e-01
5.751247e-01
5.986331e-01
5.551378e-01
5.751247e-01
5.787094e-01
5.984776e-01
5.751247e-01
5.986331e-01
5.984776e-01
6.217298e-01
5.787094e-01
5.984776e-01
6.038560e-01
6.233909e-01
5.984776e-01
6.217298e-01
6.233909e-01
6.463699e-01
6.038560e-01
6.233909e-01
6.305415e-01
6.498289e-01
6.233909e-01
6.463699e-01
6.498289e-01
6.725179e-01
6.305415e-01
6.498289e-01
6.587275e-01
6.777536e-01
6.498289e-01
6.725179e-01
6.777536e-01
7.001364e-01
6.587275e-01
6.777536e-01
6.883733e-01
7.071246e-01
6.777536e-01
7.001364e-01
7.071246e-01
7.291854e-01
6.883733e-01
7.071246e-01
7.194360e-01
7.378993e-01
7.071246e-01
7.291854e-01
7.378993e-01
7.596228e-01
7.194360e-01
7.378993e-01
7.518703e-01
7.700332e-01
7.378993e-01
7.596228e-01
7.700332e-01
7.914044e-01
7.518703e-01
7.700332e-01
7.856291e-01
8.034794e-01
7.700332e-01
7.914044e-01
8.034794e-01
8.244841e-01
7.856291e-01
8.034794e-01
8.206627e-01
8.381889e-01
8.034794e-01
8.244841e-01
8.381889e-01
8.588134e-01
8.206627e-01
8.381889e-01
8.569199e-01
8.741108e-01
8.381889e-01
8.588134e-01
8.741108e-01
8.943419e-01
8.569199e-01
8.741108e-01
8.943470e-01
9.111923e-01
8.741108e-01
8.943419e-01
9.111923e-01
9.310175e-01
8.943470e-01
9.111923e-01
9.328885e-01
9.493783e-01
9.111923e-01
9.310175e-01
9.493783e-01
9.687859e-01
9.328885e-01
9.493783e-01
9.724869e-01
9.886122e-01
9.493783e-01
9.687859e-01
9.886122e-01
1.007591e+00
9.724869e-01
9.886122e-01
1.013083e+00
1.028835e+00
9.886122e-01
1.007591e+00
1.028835e+00
1.047376e+00
1.013083e+00
1.028835e+00
1.054615e+00
1.069988e+00
1.028835e+00
1.047376e+00
1.069988e+00
1.088080e+00
1.054615e+00
1.069988e+00
1.097021e+00
1.112007e+00
1.069988e+00
1.088080e+00
1.112007e+00
1.129643e+00
1.097021e+00
1.112007e+00
1.140235e+00
1.154829e+00
1.112007e+00
1.129643e+00
1.154829e+00
1.172003e+00
1.140235e+00
1.154829e+00
1.184191e+00
1.198390e+00
1.154829e+00
1.172003e+00
1.198390e+00
1.215095e+00
1.184191e+00
1.198390e+00
1.228820e+00
1.242623e+00
1.198390e+00
1.215095e+00
1.242623e+00
1.258856e+00
1.228820e+00
1.242623e+00
1.274052e+00
1.287459e+00
1.242623e+00
1.258856e+00
1.287459e+00
1.303219e+00
1.274052e+00
1.287459e+00
1.319815e+00
1.332829e+00
1.287459e+00
1.303219e+00
1.332829e+00
1.348117e+00
1.319815e+00
1.332829e+00
1.366035e+00
1.378663e+00
1.332829e+00
1.348117e+00
1.378663e+00
1.393484e+00
1.366035e+00
1.378663e+00
1.412636e+00
1.424890e+00
1.378663e+00
1.393484e+00
1.424890e+00
1.439251e+00
1.412636e+00
1.424890e+00
1.459540e+00
1.471437e+00
1.424890e+00
1.439251e+00
1.471437e+00
1.485353e+00
1.459540e+00
1.471437e+00
1.506665e+00
1.518231e+00
1.471437e+00
1.485353e+00
1.518231e+00
1.531724e+00
1.506665e+00
1.518231e+00
1.553930e+00
1.565197e+00
1.518231e+00
1.531724e+00
1.565197e+00
1.578297e+00
1.553930e+00
1.565197e+00
1.601246e+00
1.612262e+00
1.565197e+00
1.578297e+00
1.612262e+00
1.625013e+00
1.601246e+00
1.612262e+00
1.648522e+00
1.659350e+00
1.612262e+00
1.625013e+00
1.659350e+00
1.671812e+00
1.648522e+00
1.659350e+00
1.695663e+00
1.706386e+00
1.659350e+00
1.671812e+00
1.706386e+00
1.718642e+00
1.695663e+00
1.706386e+00
1.742563e+00
1.753292e+00
1.706386e+00
1.718642e+00
1.753292e+00
1.765462e+00
1.742563e+00
1.753292e+00
1.789109e+00
1.799986e+00
1.753292e+00
1.765462e+00
1.799986e+00
1.812244e+00
1.789109e+00
1.799986e+00
1.835161e+00
1.846377e+00
1.799986e+00
1.812244e+00
1.846377e+00
1.858988e+00
1.835161e+00
1.846377e+00
1.880523e+00
1.892312e+00
1.846377e+00
1.858988e+00
1.892312e+00
1.905701e+00
1.880523e+00
1.892312e+00
1.924880e+00
1.937272e+00
1.892312e+00
1.905701e+00
1.937272e+00
1.951436e+00
1.924880e+00
1.937272e+00
1.966913e+00
1.979484e+00
1.937272e+00
1.951436e+00
1.979484e+00
1.993678e+00
1.966913e+00
1.979484e+00
2.005877e+00
2.018814e+00
1.979484e+00
1.993678e+00
2.018814e+00
2.033438e+00
2.005877e+00
2.018814e+00
2.041764e+00
2.055223e+00
2.018814e+00
2.033438e+00
2.055223e+00
2.070414e+00
2.041764e+00
2.055223e+00
2.074622e+00
2.088655e+00
2.055223e+00
2.070414e+00
2.088655e+00
2.104465e+00
2.074622e+00
2.088655e+00
2.104499e+00
2.119101e+00
2.088655e+00
2.104465e+00
2.119101e+00
2.135527e+00
2.104499e+00
2.119101e+00
2.131458e+00
2.146593e+00
2.119101e+00
2.135527e+00
2.146593e+00
2.163599e+00
2.131458e+00
2.146593e+00
2.155570e+00
2.171183e+00
2.146593e+00
2.163599e+00
2.171183e+00
2.188716e+00
2.155570e+00
2.171183e+00
2.176908e+00
2.192939e+00
2.171183e+00
2.188716e+00
2.192939e+00
2.210935e+00
2.176908e+00
2.192939e+00
2.195543e+00
2.211931e+00
2.192939e+00
2.210935e+00
2.211931e+00
2.230326e+00
2.195543e+00
2.211931e+00
2.211544e+00
2.228230e+00
2.211931e+00
2.230326e+00
2.228230e+00
2.246959e+00
2.211544e+00
2.228230e+00
2.224973e+00
2.241901e+00
2.228230e+00
2.246959e+00
2.241901e+00
2.260904e+00
2.224973e+00
2.241901e+00
2.235884e+00
2.253003e+00
2.241901e+00
2.260904e+00
2.253003e+00
2.272222e+00
2.235884e+00
2.253003e+00
2.244322e+00
2.261585e+00
2.253003e+00
2.272222e+00
2.261585e+00
2.280968e+00
2.244322e+00
2.261585e+00
2.250324e+00
2.267686e+00
2.261585e+00
2.280968e+00
2.267686e+00
2.287184e+00
2.250324e+00
2.267686e+00
2.253914e+00
2.271335e+00
2.267686e+00
2.287184e+00
2.271335e+00
2.290900e+00
2.253914e+00
2.271335e+00
2.255109e+00
2.272550e+00
2.271335e+00
2.290900e+00
2.272550e+00
2.292137e+00
</DataArray>
<DataArray type="Float32" Name="V3" format="ascii">
0.000000e+00
0.000000e+00
3.136510e-02
3.083035e-02
0.000000e+00
0.000000e+00
3.083035e-02
3.020357e-02
3.136510e-02
3.083035e-02
6.265757e-02
6.158861e-02
3.083035e-02
3.020357e-02
6.158861e-02
6.033564e-02
6.265757e-02
6.158861e-02
9.380438e-02
9.220242e-02
6.158861e-02
6.033564e-02
9.220242e-02
9.032471e-02
9.380438e-02
9.220242e-02
1.247329e-01
1.225998e-01
9.220242e-02
9.032471e-02
1.225998e-01
1.200994e-01
1.247329e-01
1.225998e-01
1.553708e-01
1.527089e-01
1.225998e-01
1.200994e-01
1.527089e-01
1.495888e-01
1.553708e-01
1.527089e-01
1.856461e-01
1.824585e-01
1.527089e-01
1.495888e-01
1.824585e-01
1.787221e-01
1.856461e-01
1.824585e-01
2.154870e-01
2.117773e-01
1.824585e-01
1.787221e-01
2.117773e-01
2.074289e-01
2.154870e-01
2.117773e-01
2.448226e-01
2.405950e-01
2.117773e-01
2.074289e-01
2.405950e-01
2.356393e-01
2.448226e-01
2.405950e-01
2.735822e-01
2.688414e-01
2.405950e-01
2.356393e-01
2.688414e-01
2.632842e-01
2.735822e-01
2.688414e-01
3.016960e-01
2.964474e-01
2.688414e-01
2.632842e-01
2.964474e-01
2.902949e-01
3.016960e-01
2.964474e-01
3.290948e-01
3.233444e-01
2.964474e-01
2.902949e-01
3.233444e-01
3.166034e-01
3.290948e-01
3.233444e-01
3.557103e-01
3.494644e-01
3.233444e-01
3.166034e-01
3.494644e-01
3.421426e-01
3.557103e-01
3.494644e-01
3.814751e-01
3.747408e-01
3.494644e-01
3.421426e-01
3.747408e-01
3.668462e-01
3.814751e-01
3.747408e-01
4.063227e-01
3.991076e-01
3.747408e-01
3.668462e-01
3.991076e-01
3.906491e-01
4.063227e-01
3.991076e-01
4.301878e-01
4.224998e-01
3.991076e-01
3.906491e-01
4.224998e-01
4.134868e-01
4.301878e-01
4.224998e-01
4.530061e-01
4.448539e-01
4.224998e-01
4.134868e-01
4.448539e-01
4.352964e-01
4.530061e-01
4.448539e-01
4.747145e-01
4.661071e-01
4.448539e-01
4.352964e-01
4.661071e-01
4.560157e-01
4.747145e-01
4.661071e-01
4.952513e-01
4.861983e-01
4.661071e-01
4.560157e-01
4.861983e-01
4.755842e-01
4.952513e-01
4.861983e-01
5.145562e-01
5.050676e-01
4.861983e-01
4.755842e-01
5.050676e-01
4.939425e-01
5.145562e-01
5.050676e-01
5.325700e-01
5.226564e-01
5.050676e-01
4.939425e-01
5.226564e-01
5.110327e-01
5.325700e-01
5.226564e-01
5.492355e-01
5.389078e-01
5.226564e-01
5.110327e-01
5.389078e-01
5.267983e-01
5.492355e-01
5.389078e-01
5.644967e-01
5.537664e-01
5.389078e-01
5.267983e-01
5.537664e-01
5.411844e-01
5.644967e-01
5.537664e-01
5.782993e-01
5.671783e-01
5.537664e-01
5.411844e-01
5.671783e-01
5.541378e-01
5.782993e-01
5.671783e-01
5.905909e-01
5.790915e-01
5.671783e-01
5.541378e-01
5.790915e-01
5.656069e-01
5.905909e-01
5.790915e-01
6.013206e-01
5.894558e-01
5.790915e-01
5.656069e-01
5.894558e-01
5.755421e-01
6.013206e-01
5.894558e-01
6.104397e-01
5.982225e-01
5.894558e-01
5.755421e-01
5.982225e-01
5.838955e-01
6.104397e-01
5.982225e-01
6.179009e-01
6.053453e-01
5.982225e-01
5.838955e-01
6.053453e-01
5.906211e-01
6.179009e-01
6.053453e-01
6.236593e-01
6.107796e-01
6.053453e-01
5.906211e-01
6.107796e-01
5.956751e-01
6.236593e-01
6.107796e-01
6.276717e-01
6.144828e-01
6.107796e-01
5.956751e-01
6.144828e-01
5.990156e-01
6.276717e-01
6.144828e-01
6.298970e-01
6.164146e-01
6.144828e-01
5.990156e-01
6.164146e-01
6.006031e-01
6.298970e-01
6.164146e-01
6.302964e-01
6.165366e-01
6.164146e-01
6.006031e-01
6.165366e-01
6.004001e-01
6.302964e-01
6.165366e-01
6.288329e-01
6.148128e-01
6.165366e-01
6.004001e-01
6.148128e-01
5.983718e-01
6.288329e-01
6.148128e-01
6.254718e-01
6.112094e-01
6.148128e-01
5.983718e-01
6.112094e-01
5.944856e-01
6.254718e-01
6.112094e-01
6.201805e-01
6.056950e-01
6.112094e-01
5.944856e-01
6.056950e-01
5.887115e-01
6.201805e-01
6.056950e-01
6.129285e-01
5.982404e-01
6.056950e-01
5.887115e-01
5.982404e-01
5.810223e-01
6.129285e-01
5.982404e-01
6.036876e-01
5.888190e-01
5.982404e-01
5.810223e-01
5.888190e-01
5.713936e-01
6.036876e-01
5.888190e-01
5.924315e-01
5.774064e-01
5.888190e-01
5.713936e-01
5.774064e-01
5.598040e-01
5.924315e-01
5.774064e-01
5.791362e-01
5.639809e-01
5.774064e-01
5.598040e-01
5.639809e-01
5.462350e-01
5.791362e-01
5.639809e-01
5.637796e-01
5.485230e-01
5.639809e-01
5.462350e-01
5.485230e-01
5.306717e-01
5.637796e-01
5.485230e-01
5.463414e-01
5.310159e-01
5.485230e-01
5.306717e-01
5.310159e-01
5.131027e-01
5.463414e-01
5.310159e-01
5.268034e-01
5.114451e-01
5.310159e-01
5.131027e-01
5.114451e-01
4.935204e-01
5.268034e-01
5.114451e-01
5.051493e-01
4.897983e-01
5.114451e-01
4.935204e-01
4.897983e-01
4.719216e-01
5.051493e-01
4.897983e-01
4.813649e-01
4.660658e-01
4.897983e-01
4.719216e-01
4.660658e-01
4.483085e-01
4.813649e-01
4.660658e-01
4.554392e-01
4.402413e-01
4.660658e-01
4.483085e-01
4.402413e-01
4.226902e-01
4.554392e-01
4.402413e-01
4.273681e-01
4.123252e-01
4.402413e-01
4.226902e-01
4.123252e-01
3.950856e-01
4.273681e-01
4.123252e-01
3.971805e-01
3.823458e-01
4.123252e-01
3.950856e-01
3.823458e-01
3.655109e-01
3.971805e-01
3.823458e-01
3.651763e-01
3.505728e-01
3.823458e-01
3.655109e-01
3.505728e-01
3.336843e-01
3.651763e-01
3.505728e-01
3.340762e-01
3.200811e-01
3.505728e-01
3.336843e-01
3.200811e-01
3.040454e-01
3.340762e-01
3.200811e-01
3.051195e-01
2.918320e-01
3.200811e-01
3.040454e-01
2.918320e-01
2.767484e-01
3.051195e-01
2.918320e-01
2.780363e-01
2.655403e-01
2.918320e-01
2.767484e-01
2.655403e-01
2.514537e-01
2.780363e-01
2.655403e-01
2.525030e-01
2.408753e-01
2.655403e-01
2.514537e-01
2.408753e-01
2.278317e-01
2.525030e-01
2.408753e-01
2.282504e-01
2.175502e-01
2.408753e-01
2.278317e-01
2.175502e-01
2.055872e-01
2.282504e-01
2.175502e-01
2.050469e-01
1.953142e-01
2.175502e-01
2.055872e-01
1.953142e-01
1.844582e-01
2.050469e-01
1.953142e-01
1.826963e-01
1.739546e-01
1.953142e-01
1.844582e-01
1.739546e-01
1.642195e-01
1.826963e-01
1.739546e-01
1.610339e-01
1.532931e-01
1.739546e-01
1.642195e-01
1.532931e-01
1.446821e-01
1.610339e-01
1.532931e-01
1.399227e-01
1.331827e-01
1.532931e-01
1.446821e-01
1.331827e-01
1.256907e-01
1.399227e-01
1.331827e-01
1.192487e-01
1.135026e-01
1.331827e-01
1.256907e-01
1.135026e-01
1.071188e-01
1.192487e-01
1.135026e-01
9.891689e-02
9.415432e-02
1.135026e-01
1.071188e-01
9.415432e-02
8.886477e-02
9.891689e-02
9.415432e-02
7.884831e-02
7.505712e-02
9.415432e-02
8.886477e-02
7.505712e-02
7.084729e-02
7.884831e-02
7.505712e-02
5.897624e-02
5.614475e-02
7.505712e-02
7.084729e-02
5.614475e-02
5.300097e-02
5.897624e-02
5.614475e-02
3.924355e-02
3.736187e-02
5.614475e-02
5.300097e-02
3.736187e-02
3.527279e-02
3.924355e-02
3.736187e-02
1.960004e-02
1.866105e-02
3.736187e-02
3.527279e-02
1.866105e-02
1.761860e-02
1.960004e-02
1.866105e-02
0.000000e+00
0.000000e+00
1.866105e-02
1.761860e-02
0.000000e+00
0.000000e+00
</DataArray>
<DataArray type="Float32" Name="V4" format="ascii">
8.500000e-01
9.250000e-01
8.500000e-01
9.250000e-01
9.250000e-01
1.000000e+00