<?xml version="1.0"?>
<VTKFile type="UnstructuredGrid" version="0.1" byte_order="LittleEndian" compressor="vtkZLibDataCompressor">
<UnstructuredGrid>
<Piece NumberOfPoints="504" NumberOfCells="126">
<Points>
<DataArray type="Float32" NumberOfComponents="3" format="ascii">
0.000000e+00 8.821856e-01 0.000000e+00
0.000000e+00 9.318703e-01 0.000000e+00
2.718691e-02 8.822051e-01 0.000000e+00
2.723032e-02 9.318868e-01 0.000000e+00
0.000000e+00 9.318703e-01 0.000000e+00
0.000000e+00 9.900000e-01 0.000000e+00
2.723032e-02 9.318868e-01 0.000000e+00
2.728665e-02 9.900000e-01 0.000000e+00
2.718691e-02 8.822051e-01 0.000000e+00
2.723032e-02 9.318868e-01 0.000000e+00
5.436794e-02 8.822602e-01 0.000000e+00
5.446339e-02 9.319362e-01 0.000000e+00
2.723032e-02 9.318868e-01 0.000000e+00
2.728665e-02 9.900000e-01 0.000000e+00
5.446339e-02 9.319362e-01 0.000000e+00
5.458301e-02 9.900000e-01 0.000000e+00
5.436794e-02 8.822602e-01 0.000000e+00
5.446339e-02 9.319362e-01 0.000000e+00
8.153633e-02 8.823525e-01 0.000000e+00
8.170213e-02 9.320202e-01 0.000000e+00
5.446339e-02 9.319362e-01 0.000000e+00
5.458301e-02 9.900000e-01 0.000000e+00
8.170213e-02 9.320202e-01 0.000000e+00
8.189953e-02 9.900000e-01 0.000000e+00
8.153633e-02 8.823525e-01 0.000000e+00
8.170213e-02 9.320202e-01 0.000000e+00
1.086841e-01 8.824823e-01 0.000000e+00
1.089496e-01 9.321412e-01 0.000000e+00
8.170213e-02 9.320202e-01 0.000000e+00
8.189953e-02 9.900000e-01 0.000000e+00
1.089496e-01 9.321412e-01 0.000000e+00
1.092478e-01 9.900000e-01 0.000000e+00
1.086841e-01 8.824823e-01 0.000000e+00
1.089496e-01 9.321412e-01 0.000000e+00
1.358013e-01 8.826492e-01 0.000000e+00
1.362088e-01 9.323018e-01 0.000000e+00
1.089496e-01 9.321412e-01 0.000000e+00
1.092478e-01 9.900000e-01 0.000000e+00
1.362088e-01 9.323018e-01 0.000000e+00
1.366413e-01 9.900000e-01 0.000000e+00
1.358013e-01 8.826492e-01 0.000000e+00
1.362088e-01 9.323018e-01 0.000000e+00
1.628746e-01 8.828516e-01 0.000000e+00
1.634829e-01 9.325051e-01 0.000000e+00
1.362088e-01 9.323018e-01 0.000000e+00
1.366413e-01 9.900000e-01 0.000000e+00
1.634829e-01 9.325051e-01 0.000000e+00
1.640956e-01 9.900000e-01 0.000000e+00
1.628746e-01 8.828516e-01 0.000000e+00
1.634829e-01 9.325051e-01 0.000000e+00
1.898868e-01 8.830850e-01 0.000000e+00
1.907743e-01 9.327526e-01 0.000000e+00
1.634829e-01 9.325051e-01 0.000000e+00
1.640956e-01 9.900000e-01 0.000000e+00
1.907743e-01 9.327526e-01 0.000000e+00
1.916288e-01 9.900000e-01 0.000000e+00
1.898868e-01 8.830850e-01 0.000000e+00
1.907743e-01 9.327526e-01 0.000000e+00
2.168156e-01 8.833395e-01 0.000000e+00
2.180834e-01 9.330432e-01 0.000000e+00
1.907743e-01 9.327526e-01 0.000000e+00
1.916288e-01 9.900000e-01 0.000000e+00
2.180834e-01 9.330432e-01 0.000000e+00
2.192613e-01 9.900000e-01 0.000000e+00
2.168156e-01 8.833395e-01 0.000000e+00
2.180834e-01 9.330432e-01 0.000000e+00
2.436322e-01 8.835966e-01 0.000000e+00
2.454066e-01 9.333693e-01 0.000000e+00
2.180834e-01 9.330432e-01 0.000000e+00
2.192613e-01 9.900000e-01 0.000000e+00
2.454066e-01 9.333693e-01 0.000000e+00
2.470147e-01 9.900000e-01 0.000000e+00
2.436322e-01 8.835966e-01 0.000000e+00
2.454066e-01 9.333693e-01 0.000000e+00
2.703011e-01 8.838230e-01 0.000000e+00
2.727310e-01 9.337113e-01 0.000000e+00
2.454066e-01 9.333693e-01 0.000000e+00
2.470147e-01 9.900000e-01 0.000000e+00
2.727310e-01 9.337113e-01 0.000000e+00
2.749092e-01 9.900000e-01 0.000000e+00
2.703011e-01 8.838230e-01 0.000000e+00
2.727310e-01 9.337113e-01 0.000000e+00
2.967795e-01 8.839617e-01 0.000000e+00
3.000268e-01 9.340268e-01 0.000000e+00
2.727310e-01 9.337113e-01 0.000000e+00
2.749092e-01 9.900000e-01 0.000000e+00
3.000268e-01 9.340268e-01 0.000000e+00
3.029587e-01 9.900000e-01 0.000000e+00
2.967795e-01 8.839617e-01 0.000000e+00
3.000268e-01 9.340268e-01 0.000000e+00
3.230184e-01 8.839207e-01 0.000000e+00
3.272329e-01 9.342309e-01 0.000000e+00
3.000268e-01 9.340268e-01 0.000000e+00
3.029587e-01 9.900000e-01 0.000000e+00
3.272329e-01 9.342309e-01 0.000000e+00
3.311631e-01 9.900000e-01 0.000000e+00
3.230184e-01 8.839207e-01 0.000000e+00
3.272329e-01 9.342309e-01 0.000000e+00
3.489559e-01 8.835421e-01 0.000000e+00
3.542469e-01 9.341405e-01 0.000000e+00
3.272329e-01 9.342309e-01 0.000000e+00
3.311631e-01 9.900000e-01 0.000000e+00
3.542469e-01 9.341405e-01 0.000000e+00
3.594950e-01 9.900000e-01 0.000000e+00
3.489559e-01 8.835421e-01 0.000000e+00
3.542469e-01 9.341405e-01 0.000000e+00
3.745853e-01 8.826483e-01 0.000000e+00
3.810554e-01 9.335305e-01 0.000000e+00
3.542469e-01 9.341405e-01 0.000000e+00
3.594950e-01 9.900000e-01 0.000000e+00
3.810554e-01 9.335305e-01 0.000000e+00
3.876769e-01 9.898512e-01 0.000000e+00
3.745853e-01 8.826483e-01 0.000000e+00
3.810554e-01 9.335305e-01 0.000000e+00
3.999046e-01 8.809231e-01 0.000000e+00
4.076488e-01 9.318609e-01 0.000000e+00
3.810554e-01 9.335305e-01 0.000000e+00
3.876769e-01 9.898512e-01 0.000000e+00
4.076488e-01 9.318609e-01 0.000000e+00
4.156909e-01 9.877700e-01 0.000000e+00
3.999046e-01 8.809231e-01 0.000000e+00
4.076488e-01 9.318609e-01 0.000000e+00
4.248925e-01 8.782626e-01 0.000000e+00
4.340301e-01 9.290778e-01 0.000000e+00
4.076488e-01 9.318609e-01 0.000000e+00
4.156909e-01 9.877700e-01 0.000000e+00
4.340301e-01 9.290778e-01 0.000000e+00
4.437869e-01 9.842738e-01 0.000000e+00
4.248925e-01 8.782626e-01 0.000000e+00
4.340301e-01 9.290778e-01 0.000000e+00
4.496055e-01 8.745536e-01 0.000000e+00
4.602822e-01 9.250825e-01 0.000000e+00
4.340301e-01 9.290778e-01 0.000000e+00
4.437869e-01 9.842738e-01 0.000000e+00
4.602822e-01 9.250825e-01 0.000000e+00
4.718307e-01 9.795286e-01 0.000000e+00
4.496055e-01 8.745536e-01 0.000000e+00
4.602822e-01 9.250825e-01 0.000000e+00
4.740610e-01 8.697989e-01 0.000000e+00
4.863850e-01 9.199168e-01 0.000000e+00
4.602822e-01 9.250825e-01 0.000000e+00
4.718307e-01 9.795286e-01 0.000000e+00
4.863850e-01 9.199168e-01 0.000000e+00
4.997477e-01 9.736031e-01 0.000000e+00
4.740610e-01 8.697989e-01 0.000000e+00
4.863850e-01 9.199168e-01 0.000000e+00
4.982650e-01 8.640181e-01 0.000000e+00
5.122900e-01 9.136232e-01 0.000000e+00
4.863850e-01 9.199168e-01 0.000000e+00
4.997477e-01 9.736031e-01 0.000000e+00
5.122900e-01 9.136232e-01 0.000000e+00
5.274678e-01 9.665355e-01 0.000000e+00
4.982650e-01 8.640181e-01 0.000000e+00
5.122900e-01 9.136232e-01 0.000000e+00
5.222117e-01 8.572412e-01 0.000000e+00
5.379496e-01 9.062460e-01 0.000000e+00
5.122900e-01 9.136232e-01 0.000000e+00
5.274678e-01 9.665355e-01 0.000000e+00
5.379496e-01 9.062460e-01 0.000000e+00
5.549292e-01 9.583625e-01 0.000000e+00
5.222117e-01 8.572412e-01 0.000000e+00
5.379496e-01 9.062460e-01 0.000000e+00
5.458882e-01 8.495004e-01 0.000000e+00
5.633231e-01 8.978294e-01 0.000000e+00
5.379496e-01 9.062460e-01 0.000000e+00
5.549292e-01 9.583625e-01 0.000000e+00
5.633231e-01 8.978294e-01 0.000000e+00
5.820786e-01 9.491222e-01 0.000000e+00
5.458882e-01 8.495004e-01 0.000000e+00
5.633231e-01 8.978294e-01 0.000000e+00
5.692772e-01 8.408279e-01 0.000000e+00
5.883759e-01 8.884159e-01 0.000000e+00
5.633231e-01 8.978294e-01 0.000000e+00
5.820786e-01 9.491222e-01 0.000000e+00
5.883759e-01 8.884159e-01 0.000000e+00
6.088713e-01 9.388546e-01 0.000000e+00
5.692772e-01 8.408279e-01 0.000000e+00
5.883759e-01 8.884159e-01 0.000000e+00
5.923597e-01 8.312556e-01 0.000000e+00
6.130779e-01 8.780466e-01 0.000000e+00
5.883759e-01 8.884159e-01 0.000000e+00
6.088713e-01 9.388546e-01 0.000000e+00
6.130779e-01 8.780466e-01 0.000000e+00
6.352696e-01 9.275999e-01 0.000000e+00
5.923597e-01 8.312556e-01 0.000000e+00
6.130779e-01 8.780466e-01 0.000000e+00
6.151154e-01 8.208148e-01 0.000000e+00
6.374030e-01 8.667607e-01 0.000000e+00
6.130779e-01 8.780466e-01 0.000000e+00
6.352696e-01 9.275999e-01 0.000000e+00
6.374030e-01 8.667607e-01 0.000000e+00
6.612421e-01 9.153979e-01 0.000000e+00
6.151154e-01 8.208148e-01 0.000000e+00
6.374030e-01 8.667607e-01 0.000000e+00
6.375244e-01 8.095362e-01 0.000000e+00
6.613278e-01 8.545956e-01 0.000000e+00
6.374030e-01 8.667607e-01 0.000000e+00
6.612421e-01 9.153979e-01 0.000000e+00
6.613278e-01 8.545956e-01 0.000000e+00
6.867622e-01 9.022871e-01 0.000000e+00
6.375244e-01 8.095362e-01 0.000000e+00
6.613278e-01 8.545956e-01 0.000000e+00
6.595668e-01 7.974497e-01 0.000000e+00
6.848309e-01 8.415868e-01 0.000000e+00
6.613278e-01 8.545956e-01 0.000000e+00
6.867622e-01 9.022871e-01 0.000000e+00
6.848309e-01 8.415868e-01 0.000000e+00
7.118068e-01 8.883046e-01 0.000000e+00
6.595668e-01 7.974497e-01 0.000000e+00
6.848309e-01 8.415868e-01 0.000000e+00
6.812235e-01 7.845844e-01 0.000000e+00
7.078932e-01 8.277679e-01 0.000000e+00
6.848309e-01 8.415868e-01 0.000000e+00
7.118068e-01 8.883046e-01 0.000000e+00
7.078932e-01 8.277679e-01 0.000000e+00
7.363562e-01 8.734858e-01 0.000000e+00
6.812235e-01 7.845844e-01 0.000000e+00
7.078932e-01 8.277679e-01 0.000000e+00
7.024760e-01 7.709685e-01 0.000000e+00
7.304968e-01 8.131712e-01 0.000000e+00
7.078932e-01 8.277679e-01 0.000000e+00
7.363562e-01 8.734858e-01 0.000000e+00
7.304968e-01 8.131712e-01 0.000000e+00
7.603926e-01 8.578644e-01 0.000000e+00
7.024760e-01 7.709685e-01 0.000000e+00
7.304968e-01 8.131712e-01 0.000000e+00
7.233066e-01 7.566296e-01 0.000000e+00
7.526252e-01 7.978272e-01 0.000000e+00
7.304968e-01 8.131712e-01 0.000000e+00
7.603926e-01 8.578644e-01 0.000000e+00
7.526252e-01 7.978272e-01 0.000000e+00
7.839002e-01 8.414726e-01 0.000000e+00
7.233066e-01 7.566296e-01 0.000000e+00
7.526252e-01 7.978272e-01 0.000000e+00
7.436984e-01 7.415944e-01 0.000000e+00
7.742630e-01 7.817652e-01 0.000000e+00
7.526252e-01 7.978272e-01 0.000000e+00
7.839002e-01 8.414726e-01 0.000000e+00
7.742630e-01 7.817652e-01 0.000000e+00
8.068648e-01 8.243410e-01 0.000000e+00
7.436984e-01 7.415944e-01 0.000000e+00
7.742630e-01 7.817652e-01 0.000000e+00
7.636355e-01 7.258886e-01 0.000000e+00
7.953956e-01 7.650131e-01 0.000000e+00
7.742630e-01 7.817652e-01 0.000000e+00
8.068648e-01 8.243410e-01 0.000000e+00
7.953956e-01 7.650131e-01 0.000000e+00
8.292730e-01 8.064988e-01 0.000000e+00
7.636355e-01 7.258886e-01 0.000000e+00
[...]
<PointData>
<DataArray type="Float32" Name="V1" format="ascii">
1.328919e+01
5.084466e+00
1.329001e+01
5.085282e+00
5.363251e+00
8.034726e-01
5.368929e+00
8.091513e-01
1.328343e+01
5.092101e+00
1.328451e+01
5.093188e+00
5.368044e+00
8.085213e-01
5.382290e+00
8.227671e-01
1.327038e+01
5.107423e+00
1.327145e+01
5.108494e+00
5.380920e+00
8.222361e-01
5.405622e+00
8.469389e-01
1.324728e+01
5.132313e+00
1.324654e+01
5.131564e+00
5.402963e+00
8.464530e-01
5.439946e+00
8.834356e-01
1.320896e+01
5.168464e+00
1.320385e+01
5.163359e+00
5.435048e+00
8.833414e-01
5.487151e+00
9.354440e-01
1.314801e+01
5.218330e+00
1.313522e+01
5.205538e+00
5.478543e+00
9.363489e-01
5.550051e+00
1.007856e+00
1.305469e+01
5.285310e+00
1.303009e+01
5.260714e+00
5.535431e+00
1.010818e+00
5.632683e+00
1.108069e+00
1.291684e+01
5.373918e+00
1.287568e+01
5.332761e+00
5.608410e+00
1.114948e+00
5.740725e+00
1.247263e+00
1.272037e+01
5.489838e+00
1.265771e+01
5.427172e+00
5.700888e+00
1.261437e+00
5.881985e+00
1.442534e+00
1.245065e+01
5.639680e+00
1.236237e+01
5.551395e+00
5.816665e+00
1.470348e+00
6.066835e+00
1.720518e+00
1.209577e+01
5.830091e+00
1.198055e+01
5.714870e+00
5.958689e+00
1.774231e+00
6.308178e+00
2.123720e+00
1.165205e+01
6.067324e+00
1.151350e+01
5.928771e+00
6.124254e+00
2.229005e+00
6.617585e+00
2.722337e+00
1.113759e+01
6.349979e+00
1.098476e+01
6.197150e+00
6.286193e+00
2.936622e+00
6.992551e+00
3.642981e+00
1.055330e+01
6.715027e+00
1.042912e+01
6.590849e+00
6.276079e+00
4.224161e+00
7.185197e+00
5.133279e+00
1.002954e+01
7.087766e+00
9.906764e+00
6.964990e+00
6.613457e+00
5.605129e+00
7.098633e+00
6.090305e+00
9.621950e+00
7.272245e+00
9.551899e+00
7.202194e+00
7.010921e+00
6.099649e+00
7.306425e+00
6.395153e+00
9.340115e+00
7.422565e+00
9.305343e+00
7.387793e+00
7.230683e+00
6.430217e+00
7.457653e+00
6.657186e+00
9.169958e+00
7.532700e+00
9.171004e+00
7.533746e+00
7.394832e+00
6.693122e+00
7.583150e+00
6.881440e+00
9.084610e+00
7.629290e+00
9.115982e+00
7.660661e+00
7.534331e+00
6.911685e+00
7.695308e+00
7.072661e+00
9.061653e+00
7.722014e+00
9.115643e+00
7.776005e+00
7.661065e+00
7.094547e+00
7.800592e+00
7.234075e+00
9.082771e+00
7.813548e+00
9.152530e+00
7.883306e+00
7.779176e+00
7.247802e+00
7.901128e+00
7.369754e+00
9.134625e+00
7.903838e+00
9.214765e+00
7.983977e+00
7.890127e+00
7.376582e+00
7.997433e+00
7.483888e+00
9.207602e+00
7.992159e+00
9.294066e+00
8.078623e+00
7.994447e+00
7.485327e+00
8.089456e+00
7.580336e+00
9.294731e+00
8.077780e+00
9.384516e+00
8.167565e+00
8.092418e+00
7.577769e+00
8.177046e+00
7.662397e+00
9.390892e+00
8.160151e+00
9.481792e+00
8.251050e+00
8.184291e+00
7.656965e+00
8.260109e+00
7.732783e+00
9.492295e+00
8.238915e+00
9.582706e+00
8.329326e+00
8.270341e+00
7.725378e+00
8.338635e+00
7.793671e+00
9.596128e+00
8.313879e+00
9.684899e+00
8.402650e+00
8.350867e+00
7.784971e+00
8.412692e+00
7.846796e+00
9.700311e+00
8.384971e+00
9.786630e+00
8.471290e+00
8.426182e+00
7.837307e+00
8.482407e+00
7.893532e+00
9.803317e+00
8.452205e+00
9.886629e+00
8.535517e+00
8.496601e+00
7.883628e+00
8.547942e+00
7.934970e+00
9.904043e+00
8.515654e+00
9.983987e+00
8.595599e+00
8.562432e+00
7.924923e+00
8.609484e+00
7.971975e+00
1.000171e+01
8.575433e+00
1.007807e+01
8.651791e+00
8.623971e+00
7.961982e+00
8.667229e+00
8.005240e+00
1.009579e+01
8.631679e+00
1.016845e+01
8.704341e+00
8.681497e+00
7.995440e+00
8.721377e+00
8.035319e+00
1.018592e+01
8.684544e+00
1.025486e+01
8.753479e+00
8.735275e+00
8.025809e+00
8.772124e+00
8.062659e+00
1.027192e+01
8.734188e+00
1.033715e+01
8.799421e+00
8.785547e+00
8.053504e+00
8.819664e+00
8.087621e+00
1.035368e+01
8.780772e+00
1.041528e+01
8.842370e+00
8.832542e+00
8.078862e+00
8.864180e+00
8.110500e+00
1.043118e+01
8.824454e+00
1.048924e+01
8.882513e+00
8.876470e+00
8.102162e+00
8.905847e+00
8.131539e+00
1.050446e+01
8.865390e+00
1.055909e+01
8.920023e+00
8.917526e+00
8.123633e+00
8.944830e+00
8.150937e+00
1.057359e+01
8.903727e+00
1.062493e+01
8.955060e+00
8.955888e+00
8.143466e+00
8.981283e+00
8.168861e+00
1.063870e+01
8.939608e+00
1.068686e+01
8.987773e+00
8.991722e+00
8.161820e+00
9.015351e+00
8.185449e+00
1.069990e+01
8.973167e+00
1.074503e+01
9.018298e+00
9.025181e+00
8.178830e+00
9.047170e+00
8.200819e+00
1.075733e+01
9.004530e+00
1.079956e+01
9.046759e+00
9.056403e+00
8.194610e+00
9.076864e+00
8.215071e+00
1.081113e+01
9.033815e+00
1.085059e+01
9.073274e+00
9.085518e+00
8.209259e+00
9.104550e+00
8.228290e+00
1.086145e+01
9.061133e+00
1.089827e+01
9.097948e+00
9.112645e+00
8.222860e+00
9.130336e+00
8.240551e+00
1.090844e+01
9.086587e+00
1.094274e+01
9.120878e+00
9.137892e+00
8.235488e+00
9.154321e+00
8.251918e+00
1.095224e+01
9.110274e+00
1.098412e+01
9.142156e+00
9.161359e+00
8.247206e+00
9.176597e+00
8.262445e+00
1.099298e+01
9.132281e+00
1.102256e+01
9.161862e+00
9.183138e+00
8.258070e+00
9.197250e+00
8.272182e+00
1.103079e+01
9.152692e+00
1.105817e+01
9.180072e+00
9.203313e+00
8.268129e+00
9.216356e+00
8.281172e+00
1.106580e+01
9.171581e+00
1.109107e+01
9.196856e+00
9.221962e+00
8.277428e+00
9.233988e+00
8.289454e+00
1.109811e+01
9.189019e+00
1.112137e+01
9.212276e+00
9.239155e+00
8.286005e+00
9.250211e+00
8.297061e+00
1.112785e+01
9.205069e+00
1.114917e+01
9.226389e+00
9.254956e+00
8.293895e+00
9.265084e+00
8.304023e+00
1.115510e+01
9.219791e+00
1.117456e+01
9.239247e+00
9.269423e+00
8.301130e+00
9.278661e+00
8.310368e+00
1.117997e+01
9.233237e+00
1.119763e+01
9.250898e+00
9.282611e+00
8.307736e+00
9.290993e+00
8.316118e+00
1.120253e+01
9.245455e+00
1.121845e+01
9.261383e+00
9.294566e+00
8.313738e+00
9.302123e+00
8.321295e+00
1.122286e+01
9.256491e+00
1.123711e+01
9.270739e+00
9.305332e+00
8.319158e+00
9.312092e+00
8.325918e+00
1.124103e+01
9.266382e+00
1.125365e+01
9.279002e+00
9.314948e+00
8.324016e+00
9.320935e+00
8.330003e+00
1.125711e+01
9.275164e+00
1.126814e+01
9.286199e+00
9.323448e+00
8.328329e+00
9.328682e+00
8.333563e+00
1.127114e+01
9.282869e+00
1.128063e+01
9.292356e+00
9.330863e+00
8.332112e+00
9.335363e+00
8.336612e+00
1.128318e+01
9.289523e+00
1.129115e+01
9.297496e+00
9.337217e+00
8.335378e+00
9.340999e+00
8.339160e+00
1.129327e+01
9.295149e+00
1.129976e+01
9.301635e+00
9.342534e+00
8.338138e+00
9.345611e+00
8.341215e+00
1.130144e+01
9.299767e+00
1.130646e+01
9.304789e+00
9.346833e+00
8.340402e+00
9.349215e+00
8.342784e+00
1.130772e+01
9.303393e+00
1.131129e+01
9.306968e+00
9.350127e+00
8.342177e+00
9.351823e+00
8.343872e+00
1.131213e+01
9.306040e+00
1.131427e+01
9.308180e+00
9.352430e+00
8.343469e+00
9.353445e+00
8.344484e+00
1.131469e+01
9.307717e+00
1.131540e+01
9.308429e+00
9.353747e+00
8.344282e+00
9.354085e+00
8.344621e+00
</DataArray>
<DataArray type="Float32" Name="V2" format="ascii">
8.821856e-01
9.318703e-01
8.826087e-01
9.322760e-01
9.318703e-01
9.900000e-01
9.322760e-01
9.903726e-01
8.826087e-01
9.322760e-01
8.838735e-01
9.334925e-01
9.322760e-01
9.903726e-01
9.334925e-01
9.914901e-01
8.838735e-01
9.334925e-01
8.859785e-01
9.355197e-01
9.334925e-01
9.914901e-01
9.355197e-01
9.933521e-01
8.859785e-01
9.355197e-01
8.889185e-01
9.383570e-01
9.355197e-01
9.933521e-01
9.383570e-01
9.959580e-01
8.889185e-01
9.383570e-01
8.926852e-01
9.420031e-01
9.383570e-01
9.959580e-01
9.420031e-01
9.993073e-01
8.926852e-01
9.420031e-01
8.972661e-01
9.464556e-01
9.420031e-01
9.993073e-01
9.464556e-01
1.003400e+00
8.972661e-01
9.464556e-01
9.026424e-01
9.517096e-01
9.464556e-01
1.003400e+00
9.517096e-01
1.008236e+00
9.026424e-01
9.517096e-01
9.087863e-01
9.577556e-01
9.517096e-01
1.008236e+00
9.577556e-01
1.013817e+00
9.087863e-01
9.577556e-01
9.156563e-01
9.645758e-01
9.577556e-01
1.013817e+00
9.645758e-01
1.020145e+00
9.156563e-01
9.645758e-01
9.231916e-01
9.721368e-01
9.645758e-01
1.020145e+00
9.721368e-01
1.027222e+00
9.231916e-01
9.721368e-01
9.313029e-01
9.803763e-01
9.721368e-01
1.027222e+00
9.803763e-01
1.035051e+00
9.313029e-01
9.803763e-01
9.398619e-01
9.891792e-01
9.803763e-01
1.035051e+00
9.891792e-01
1.043629e+00
9.398619e-01
9.891792e-01
9.486716e-01
9.983202e-01
9.891792e-01
1.043629e+00
9.983202e-01
1.052942e+00
9.486716e-01
9.983202e-01
9.575338e-01
1.007560e+00
9.983202e-01
1.052942e+00
1.007560e+00
1.062749e+00
9.575338e-01
1.007560e+00
9.661298e-01
1.016376e+00
1.007560e+00
1.062749e+00
1.016376e+00
1.071358e+00
9.661298e-01
1.016376e+00
9.743411e-01
1.024716e+00
1.016376e+00
1.071358e+00
1.024716e+00
1.079367e+00
9.743411e-01
1.024716e+00
9.820777e-01
1.032526e+00
1.024716e+00
1.079367e+00
1.032526e+00
1.086904e+00
9.820777e-01
1.032526e+00
9.893491e-01
1.039851e+00
1.032526e+00
1.086904e+00
1.039851e+00
1.094018e+00
9.893491e-01
1.039851e+00
9.961791e-01
1.046720e+00
1.039851e+00
1.094018e+00
1.046720e+00
1.100729e+00
9.961791e-01
1.046720e+00
1.002598e+00
1.053161e+00
1.046720e+00
1.100729e+00
1.053161e+00
1.107052e+00
1.002598e+00
1.053161e+00
1.008633e+00
1.059205e+00
1.053161e+00
1.107052e+00
1.059205e+00
1.113003e+00
1.008633e+00
1.059205e+00
1.014312e+00
1.064877e+00
1.059205e+00
1.113003e+00
1.064877e+00
1.118603e+00
1.014312e+00
1.064877e+00
1.019659e+00
1.070205e+00
1.064877e+00
1.118603e+00
1.070205e+00
1.123871e+00
1.019659e+00
1.070205e+00
1.024696e+00
1.075213e+00
1.070205e+00
1.123871e+00
1.075213e+00
1.128828e+00
1.024696e+00
1.075213e+00
1.029444e+00
1.079925e+00
1.075213e+00
1.128828e+00
1.079925e+00
1.133494e+00
1.029444e+00
1.079925e+00
1.033922e+00
1.084360e+00
1.079925e+00
1.133494e+00
1.084360e+00
1.137889e+00
1.033922e+00
1.084360e+00
1.038149e+00
1.088539e+00
1.084360e+00
1.137889e+00
1.088539e+00
1.142029e+00
1.038149e+00
1.088539e+00
1.042139e+00
1.092480e+00
1.088539e+00
1.142029e+00
1.092480e+00
1.145933e+00
1.042139e+00
1.092480e+00
1.045908e+00
1.096197e+00
1.092480e+00
1.145933e+00
1.096197e+00
1.149616e+00
1.045908e+00
1.096197e+00
1.049471e+00
1.099707e+00
1.096197e+00
1.149616e+00
1.099707e+00
1.153092e+00
1.049471e+00
1.099707e+00
1.052838e+00
1.103022e+00
1.099707e+00
1.153092e+00
1.103022e+00
1.156375e+00
1.052838e+00
1.103022e+00
1.056022e+00
1.106155e+00
1.103022e+00
1.156375e+00
1.106155e+00
1.159476e+00
1.056022e+00
1.106155e+00
1.059034e+00
1.109115e+00
1.106155e+00
1.159476e+00
1.109115e+00
1.162406e+00
1.059034e+00
1.109115e+00
1.061883e+00
1.111915e+00
1.109115e+00
1.162406e+00
1.111915e+00
1.165176e+00
1.061883e+00
1.111915e+00
1.064578e+00
1.114561e+00
1.111915e+00
1.165176e+00
1.114561e+00
1.167794e+00
1.064578e+00
1.114561e+00
1.067126e+00
1.117064e+00
1.114561e+00
1.167794e+00
1.117064e+00
1.170269e+00
1.067126e+00
1.117064e+00
1.069536e+00
1.119429e+00
1.117064e+00
1.170269e+00
1.119429e+00
1.172608e+00
1.069536e+00
1.119429e+00
1.071813e+00
1.121664e+00
1.119429e+00
1.172608e+00
1.121664e+00
1.174818e+00
1.071813e+00
1.121664e+00
1.073964e+00
1.123776e+00
1.121664e+00
1.174818e+00
1.123776e+00
1.176905e+00
1.073964e+00
1.123776e+00
1.075995e+00
1.125769e+00
1.123776e+00
1.176905e+00
1.125769e+00
1.178875e+00
1.075995e+00
1.125769e+00
1.077911e+00
1.127648e+00
1.125769e+00
1.178875e+00
1.127648e+00
1.180733e+00
1.077911e+00
1.127648e+00
1.079716e+00
1.129419e+00
1.127648e+00
1.180733e+00
1.129419e+00
1.182482e+00
1.079716e+00
1.129419e+00
1.081414e+00
1.131085e+00
1.129419e+00
1.182482e+00
1.131085e+00
1.184129e+00
1.081414e+00
1.131085e+00
1.083009e+00
1.132650e+00
1.131085e+00
1.184129e+00
1.132650e+00
1.185675e+00
1.083009e+00
1.132650e+00
1.084505e+00
1.134118e+00
1.132650e+00
1.185675e+00
1.134118e+00
1.187126e+00
1.084505e+00
1.134118e+00
1.085905e+00
1.135492e+00
1.134118e+00
1.187126e+00
1.135492e+00
1.188483e+00
1.085905e+00
1.135492e+00
1.087212e+00
1.136774e+00
1.135492e+00
1.188483e+00
1.136774e+00
1.189750e+00
1.087212e+00
1.136774e+00
1.088428e+00
1.137968e+00
1.136774e+00
1.189750e+00
1.137968e+00
1.190929e+00
1.088428e+00
1.137968e+00
1.089556e+00
1.139075e+00
1.137968e+00
1.190929e+00
1.139075e+00
1.192022e+00
1.089556e+00
1.139075e+00
1.090598e+00
1.140097e+00
1.139075e+00
1.192022e+00
1.140097e+00
1.193032e+00
1.090598e+00
1.140097e+00
1.091556e+00
1.141037e+00
1.140097e+00
1.193032e+00
1.141037e+00
1.193961e+00
1.091556e+00
1.141037e+00
1.092431e+00
1.141896e+00
1.141037e+00
1.193961e+00
1.141896e+00
1.194810e+00
1.092431e+00
1.141896e+00
1.093225e+00
1.142676e+00
1.141896e+00
1.194810e+00
1.142676e+00
1.195580e+00
1.093225e+00
1.142676e+00
1.093940e+00
1.143377e+00
1.142676e+00
1.195580e+00
1.143377e+00
1.196273e+00
1.093940e+00
1.143377e+00
1.094576e+00
1.144002e+00
1.143377e+00
1.196273e+00
1.144002e+00
1.196890e+00
1.094576e+00
1.144002e+00
1.095135e+00
1.144551e+00
1.144002e+00
1.196890e+00
1.144551e+00
1.197432e+00
1.095135e+00
1.144551e+00
1.095618e+00
1.145025e+00
1.144551e+00
1.197432e+00
1.145025e+00
1.197900e+00
1.095618e+00
1.145025e+00
1.096025e+00
1.145425e+00
1.145025e+00
1.197900e+00
1.145425e+00
1.198295e+00
1.096025e+00
1.145425e+00
1.096357e+00
1.145751e+00
1.145425e+00
1.198295e+00
1.145751e+00
1.198618e+00
1.096357e+00
1.145751e+00
1.096615e+00
1.146004e+00
1.145751e+00
1.198618e+00
1.146004e+00
1.198868e+00
1.096615e+00
1.146004e+00
1.096799e+00
1.146185e+00
1.146004e+00
1.198868e+00
1.146185e+00
1.199046e+00
1.096799e+00
1.146185e+00
1.096909e+00
1.146293e+00
1.146185e+00
1.199046e+00
1.146293e+00
1.199153e+00
1.096909e+00
1.146293e+00
1.096946e+00
1.146329e+00
1.146293e+00
1.199153e+00
1.146329e+00
1.199189e+00
</DataArray>
<DataArray type="Float32" Name="V3" format="ascii">
0.000000e+00
0.000000e+00
5.184477e-03
3.989277e-03
0.000000e+00
0.000000e+00
3.989277e-03
2.596783e-03
5.184477e-03
3.989277e-03
1.032331e-02
7.942504e-03
3.989277e-03
2.596783e-03
7.942504e-03
5.167731e-03
1.032331e-02
7.942504e-03
1.537005e-02
1.182372e-02
7.942504e-03
5.167731e-03
1.182372e-02
7.687729e-03
1.537005e-02
1.182372e-02
2.027721e-02
1.559687e-02
1.182372e-02
7.687729e-03
1.559687e-02
1.013277e-02
2.027721e-02
1.559687e-02
2.499548e-02
1.922585e-02
1.559687e-02
1.013277e-02
1.922585e-02
1.248057e-02
2.499548e-02
1.922585e-02
2.947318e-02
2.267429e-02
1.922585e-02
1.248057e-02
2.267429e-02
1.471091e-02
2.947318e-02
2.267429e-02
3.365589e-02
2.590523e-02
2.267429e-02
1.471091e-02
2.590523e-02
1.680583e-02
3.365589e-02
2.590523e-02
3.748633e-02
2.888049e-02
2.590523e-02
1.680583e-02
2.888049e-02
1.874925e-02
3.748633e-02
2.888049e-02
4.090511e-02
3.155950e-02
2.888049e-02
1.874925e-02
3.155950e-02
2.052584e-02
4.090511e-02
3.155950e-02
4.385280e-02
3.389722e-02
3.155950e-02
2.052584e-02
3.389722e-02
2.211841e-02
4.385280e-02
3.389722e-02
4.627449e-02
3.584082e-02
3.389722e-02
2.211841e-02
3.584082e-02
2.350330e-02
4.627449e-02
3.584082e-02
4.812743e-02
3.732546e-02
3.584082e-02
2.350330e-02
3.732546e-02
2.464279e-02
4.812743e-02
3.732546e-02
4.938851e-02
3.828902e-02
3.732546e-02
2.464279e-02
3.828902e-02
2.547336e-02
4.938851e-02
3.828902e-02
5.011158e-02
3.878870e-02
3.828902e-02
2.547336e-02
3.878870e-02
2.574805e-02
5.011158e-02
3.878870e-02
5.042332e-02
3.902257e-02
3.878870e-02
2.574805e-02
3.902257e-02
2.608288e-02
5.042332e-02
3.902257e-02
5.038053e-02
3.906225e-02
3.902257e-02
2.608288e-02
3.906225e-02
2.661292e-02
5.038053e-02
3.906225e-02
5.012544e-02
3.907542e-02
3.906225e-02
2.661292e-02
3.907542e-02
2.720894e-02
5.012544e-02
3.907542e-02
4.972261e-02
3.908082e-02
3.907542e-02
2.720894e-02
3.908082e-02
2.782653e-02
4.972261e-02
3.908082e-02
4.921771e-02
3.906777e-02
3.908082e-02
2.782653e-02
3.906777e-02
2.843489e-02
4.921771e-02
3.906777e-02
4.863857e-02
3.902317e-02
3.906777e-02
2.843489e-02
3.902317e-02
2.901010e-02
4.863857e-02
3.902317e-02
4.800284e-02
3.893745e-02
3.902317e-02
2.901010e-02
3.893745e-02
2.953375e-02
4.800284e-02
3.893745e-02
4.732182e-02
3.880444e-02
3.893745e-02
2.953375e-02
3.880444e-02
2.999245e-02
4.732182e-02
3.880444e-02
4.660287e-02
3.862043e-02
3.880444e-02
2.999245e-02
3.862043e-02
3.037707e-02
4.660287e-02
3.862043e-02
4.585077e-02
3.838338e-02
3.862043e-02
3.037707e-02
3.838338e-02
3.068189e-02
4.585077e-02
3.838338e-02
4.506865e-02
3.809235e-02
3.838338e-02
3.068189e-02
3.809235e-02
3.090392e-02
4.506865e-02
3.809235e-02
4.425850e-02
3.774720e-02
3.809235e-02
3.090392e-02
3.774720e-02
3.104211e-02
4.425850e-02
3.774720e-02
4.342161e-02
3.734836e-02
3.774720e-02
3.104211e-02
3.734836e-02
3.109693e-02
4.342161e-02
3.734836e-02
4.255878e-02
3.689667e-02
3.734836e-02
3.109693e-02
3.689667e-02
3.106986e-02
4.255878e-02
3.689667e-02
4.167054e-02
3.639328e-02
3.689667e-02
3.106986e-02
3.639328e-02
3.096313e-02
4.167054e-02
3.639328e-02
4.075723e-02
3.583955e-02
3.639328e-02
3.096313e-02
3.583955e-02
3.077947e-02
4.075723e-02
3.583955e-02
3.981915e-02
3.523700e-02
3.583955e-02
3.077947e-02
3.523700e-02
3.052190e-02
3.981915e-02
3.523700e-02
3.885655e-02
3.458728e-02
3.523700e-02
3.052190e-02
3.458728e-02
3.019364e-02
3.885655e-02
3.458728e-02
3.786969e-02
3.389208e-02
3.458728e-02
3.019364e-02
3.389208e-02
2.979797e-02
3.786969e-02
3.389208e-02
3.685887e-02
3.315316e-02
3.389208e-02
2.979797e-02
3.315316e-02
2.933822e-02
3.685887e-02
3.315316e-02
3.582445e-02
3.237229e-02
3.315316e-02
2.933822e-02
3.237229e-02
2.881766e-02
3.582445e-02
3.237229e-02
3.476682e-02
3.155124e-02
3.237229e-02
2.881766e-02
3.155124e-02
2.823950e-02
3.476682e-02
3.155124e-02
3.368644e-02
3.069178e-02
3.155124e-02
2.823950e-02
3.069178e-02
2.760686e-02
3.368644e-02
3.069178e-02
3.258383e-02
2.979563e-02
3.069178e-02
2.760686e-02
2.979563e-02
2.692277e-02
3.258383e-02
2.979563e-02
3.145954e-02
2.886454e-02
2.979563e-02
2.692277e-02
2.886454e-02
2.619014e-02
3.145954e-02
2.886454e-02
3.031419e-02
2.790019e-02
2.886454e-02
2.619014e-02
2.790019e-02
2.541178e-02
3.031419e-02
2.790019e-02
2.914845e-02
2.690424e-02
2.790019e-02
2.541178e-02
2.690424e-02
2.459037e-02
2.914845e-02
2.690424e-02
2.796299e-02
2.587833e-02
2.690424e-02
2.459037e-02
2.587833e-02
2.372849e-02
2.796299e-02
2.587833e-02
2.675857e-02
2.482404e-02
2.587833e-02
2.372849e-02
2.482404e-02
2.282864e-02
2.675857e-02
2.482404e-02
2.553594e-02
2.374294e-02
2.482404e-02
2.282864e-02
2.374294e-02
2.189318e-02
2.553594e-02
2.374294e-02
2.429590e-02
2.263658e-02
2.374294e-02
2.189318e-02
2.263658e-02
2.092441e-02
2.429590e-02
2.263658e-02
2.303926e-02
2.150644e-02
2.263658e-02
2.092441e-02
2.150644e-02
1.992453e-02
2.303926e-02
2.150644e-02
2.176687e-02
2.035400e-02
2.150644e-02
1.992453e-02
2.035400e-02
1.889566e-02
2.176687e-02
2.035400e-02
2.047957e-02
1.918071e-02
2.035400e-02
1.889566e-02
1.918071e-02
1.783985e-02
2.047957e-02
1.918071e-02
1.917826e-02
1.798799e-02
1.918071e-02
1.783985e-02
1.798799e-02
1.675907e-02
1.917826e-02
1.798799e-02
1.786380e-02
1.677724e-02
1.798799e-02
1.675907e-02
1.677724e-02
1.565525e-02
1.786380e-02
1.677724e-02
1.653710e-02
1.554983e-02
1.677724e-02
1.565525e-02
1.554983e-02
1.453025e-02
1.653710e-02
1.554983e-02
1.519907e-02
1.430712e-02
1.554983e-02
1.453025e-02
1.430712e-02
1.338588e-02
1.519907e-02
1.430712e-02
1.385064e-02
1.305045e-02
1.430712e-02
1.338588e-02
1.305045e-02
1.222389e-02
1.385064e-02
1.305045e-02
1.249272e-02
1.178113e-02
1.305045e-02
1.222389e-02
1.178113e-02
1.104603e-02
1.249272e-02
1.178113e-02
1.112625e-02
1.050047e-02
1.178113e-02
1.104603e-02
1.050047e-02
9.853964e-03
1.112625e-02
1.050047e-02
9.752166e-03
9.209763e-03
1.050047e-02
9.853964e-03
9.209763e-03
8.649357e-03
9.752166e-03
9.209763e-03
8.371412e-03
7.910290e-03
9.209763e-03
8.649357e-03
7.910290e-03
7.433835e-03
8.371412e-03
7.910290e-03
6.984935e-03
6.603322e-03
7.910290e-03
7.433835e-03
6.603322e-03
6.208999e-03
6.984935e-03
6.603322e-03
5.593683e-03
5.290119e-03
6.603322e-03
6.208999e-03
5.290119e-03
4.976433e-03
5.593683e-03
5.290119e-03
4.198609e-03
3.971939e-03
5.290119e-03
4.976433e-03
3.971939e-03
3.737702e-03
4.198609e-03
3.971939e-03
2.800667e-03
2.650029e-03
3.971939e-03
3.737702e-03
2.650029e-03
2.494358e-03
2.800667e-03
2.650029e-03
1.400812e-03
1.325635e-03
2.650029e-03
2.494358e-03
1.325635e-03
1.247946e-03
1.400812e-03
1.325635e-03
0.000000e+00
0.000000e+00
1.325635e-03
1.247946e-03
0.000000e+00
0.000000e+00
</DataArray>
<DataArray type="Float32" Name="V4" format="ascii">
8.500000e-01
9.250000e-01
8.500000e-01
9.250000e-01
9.250000e-01
1.000000e+00