<?xml version="1.0"?>
<VTKFile type="UnstructuredGrid" version="0.1" byte_order="LittleEndian" compressor="vtkZLibDataCompressor">
<UnstructuredGrid>
<Piece NumberOfPoints="504" NumberOfCells="126">
<Points>
<DataArray type="Float32" NumberOfComponents="3" format="ascii">
0.000000e+00 5.556661e-01 0.000000e+00
0.000000e+00 5.943994e-01 0.000000e+00
3.081217e-02 5.556755e-01 0.000000e+00
3.079196e-02 5.944036e-01 0.000000e+00
0.000000e+00 5.943994e-01 0.000000e+00
0.000000e+00 6.400000e-01 0.000000e+00
3.079196e-02 5.944036e-01 0.000000e+00
3.078025e-02 6.400000e-01 0.000000e+00
3.081217e-02 5.556755e-01 0.000000e+00
3.079196e-02 5.944036e-01 0.000000e+00
6.162380e-02 5.556983e-01 0.000000e+00
6.158332e-02 5.944160e-01 0.000000e+00
3.079196e-02 5.944036e-01 0.000000e+00
3.078025e-02 6.400000e-01 0.000000e+00
6.158332e-02 5.944160e-01 0.000000e+00
6.155989e-02 6.400000e-01 0.000000e+00
6.162380e-02 5.556983e-01 0.000000e+00
6.158332e-02 5.944160e-01 0.000000e+00
9.243406e-02 5.557364e-01 0.000000e+00
9.237345e-02 5.944368e-01 0.000000e+00
6.158332e-02 5.944160e-01 0.000000e+00
6.155989e-02 6.400000e-01 0.000000e+00
9.237345e-02 5.944368e-01 0.000000e+00
9.233839e-02 6.400000e-01 0.000000e+00
9.243406e-02 5.557364e-01 0.000000e+00
9.237345e-02 5.944368e-01 0.000000e+00
1.232423e-01 5.557897e-01 0.000000e+00
1.231617e-01 5.944657e-01 0.000000e+00
9.237345e-02 5.944368e-01 0.000000e+00
9.233839e-02 6.400000e-01 0.000000e+00
1.231617e-01 5.944657e-01 0.000000e+00
1.231152e-01 6.400000e-01 0.000000e+00
1.232423e-01 5.557897e-01 0.000000e+00
1.231617e-01 5.944657e-01 0.000000e+00
1.540478e-01 5.558581e-01 0.000000e+00
1.539475e-01 5.945030e-01 0.000000e+00
1.231617e-01 5.944657e-01 0.000000e+00
1.231152e-01 6.400000e-01 0.000000e+00
1.539475e-01 5.945030e-01 0.000000e+00
1.538896e-01 6.400000e-01 0.000000e+00
1.540478e-01 5.558581e-01 0.000000e+00
1.539475e-01 5.945030e-01 0.000000e+00
1.848498e-01 5.559417e-01 0.000000e+00
1.847302e-01 5.945485e-01 0.000000e+00
1.539475e-01 5.945030e-01 0.000000e+00
1.538896e-01 6.400000e-01 0.000000e+00
1.847302e-01 5.945485e-01 0.000000e+00
1.846612e-01 6.400000e-01 0.000000e+00
1.848498e-01 5.559417e-01 0.000000e+00
1.847302e-01 5.945485e-01 0.000000e+00
2.156477e-01 5.560402e-01 0.000000e+00
2.155091e-01 5.946022e-01 0.000000e+00
1.847302e-01 5.945485e-01 0.000000e+00
1.846612e-01 6.400000e-01 0.000000e+00
2.155091e-01 5.946022e-01 0.000000e+00
2.154292e-01 6.400000e-01 0.000000e+00
2.156477e-01 5.560402e-01 0.000000e+00
2.155091e-01 5.946022e-01 0.000000e+00
2.464405e-01 5.561538e-01 0.000000e+00
2.462835e-01 5.946641e-01 0.000000e+00
2.155091e-01 5.946022e-01 0.000000e+00
2.154292e-01 6.400000e-01 0.000000e+00
2.462835e-01 5.946641e-01 0.000000e+00
2.461933e-01 6.400000e-01 0.000000e+00
2.464405e-01 5.561538e-01 0.000000e+00
2.462835e-01 5.946641e-01 0.000000e+00
2.772276e-01 5.562822e-01 0.000000e+00
2.770528e-01 5.947342e-01 0.000000e+00
2.462835e-01 5.946641e-01 0.000000e+00
2.461933e-01 6.400000e-01 0.000000e+00
2.770528e-01 5.947342e-01 0.000000e+00
2.769527e-01 6.400000e-01 0.000000e+00
2.772276e-01 5.562822e-01 0.000000e+00
2.770528e-01 5.947342e-01 0.000000e+00
3.080081e-01 5.564254e-01 0.000000e+00
3.078163e-01 5.948124e-01 0.000000e+00
2.770528e-01 5.947342e-01 0.000000e+00
2.769527e-01 6.400000e-01 0.000000e+00
3.078163e-01 5.948124e-01 0.000000e+00
3.077070e-01 6.400000e-01 0.000000e+00
3.080081e-01 5.564254e-01 0.000000e+00
3.078163e-01 5.948124e-01 0.000000e+00
3.387809e-01 5.565833e-01 0.000000e+00
3.385733e-01 5.948989e-01 0.000000e+00
3.078163e-01 5.948124e-01 0.000000e+00
3.077070e-01 6.400000e-01 0.000000e+00
3.385733e-01 5.948989e-01 0.000000e+00
3.384555e-01 6.400000e-01 0.000000e+00
3.387809e-01 5.565833e-01 0.000000e+00
3.385733e-01 5.948989e-01 0.000000e+00
3.695452e-01 5.567559e-01 0.000000e+00
3.693229e-01 5.949936e-01 0.000000e+00
3.385733e-01 5.948989e-01 0.000000e+00
3.384555e-01 6.400000e-01 0.000000e+00
3.693229e-01 5.949936e-01 0.000000e+00
3.691980e-01 6.400000e-01 0.000000e+00
3.695452e-01 5.567559e-01 0.000000e+00
3.693229e-01 5.949936e-01 0.000000e+00
4.002997e-01 5.569431e-01 0.000000e+00
4.000646e-01 5.950965e-01 0.000000e+00
3.693229e-01 5.949936e-01 0.000000e+00
3.691980e-01 6.400000e-01 0.000000e+00
4.000646e-01 5.950965e-01 0.000000e+00
3.999338e-01 6.400000e-01 0.000000e+00
4.002997e-01 5.569431e-01 0.000000e+00
4.000646e-01 5.950965e-01 0.000000e+00
4.310434e-01 5.571447e-01 0.000000e+00
4.307975e-01 5.952078e-01 0.000000e+00
4.000646e-01 5.950965e-01 0.000000e+00
3.999338e-01 6.400000e-01 0.000000e+00
4.307975e-01 5.952078e-01 0.000000e+00
4.306628e-01 6.400000e-01 0.000000e+00
4.310434e-01 5.571447e-01 0.000000e+00
4.307975e-01 5.952078e-01 0.000000e+00
4.617748e-01 5.573608e-01 0.000000e+00
4.615210e-01 5.953275e-01 0.000000e+00
4.307975e-01 5.952078e-01 0.000000e+00
4.306628e-01 6.400000e-01 0.000000e+00
4.615210e-01 5.953275e-01 0.000000e+00
4.613847e-01 6.400000e-01 0.000000e+00
4.617748e-01 5.573608e-01 0.000000e+00
4.615210e-01 5.953275e-01 0.000000e+00
4.924923e-01 5.575913e-01 0.000000e+00
4.922341e-01 5.954559e-01 0.000000e+00
4.615210e-01 5.953275e-01 0.000000e+00
4.613847e-01 6.400000e-01 0.000000e+00
4.922341e-01 5.954559e-01 0.000000e+00
4.920995e-01 6.400000e-01 0.000000e+00
4.924923e-01 5.575913e-01 0.000000e+00
4.922341e-01 5.954559e-01 0.000000e+00
5.231943e-01 5.578363e-01 0.000000e+00
5.229363e-01 5.955933e-01 0.000000e+00
4.922341e-01 5.954559e-01 0.000000e+00
4.920995e-01 6.400000e-01 0.000000e+00
5.229363e-01 5.955933e-01 0.000000e+00
5.228074e-01 6.400000e-01 0.000000e+00
5.231943e-01 5.578363e-01 0.000000e+00
5.229363e-01 5.955933e-01 0.000000e+00
5.538787e-01 5.580959e-01 0.000000e+00
5.536269e-01 5.957399e-01 0.000000e+00
5.229363e-01 5.955933e-01 0.000000e+00
5.228074e-01 6.400000e-01 0.000000e+00
5.536269e-01 5.957399e-01 0.000000e+00
5.535091e-01 6.400000e-01 0.000000e+00
5.538787e-01 5.580959e-01 0.000000e+00
5.536269e-01 5.957399e-01 0.000000e+00
5.845431e-01 5.583702e-01 0.000000e+00
5.843052e-01 5.958963e-01 0.000000e+00
5.536269e-01 5.957399e-01 0.000000e+00
5.535091e-01 6.400000e-01 0.000000e+00
5.843052e-01 5.958963e-01 0.000000e+00
5.842055e-01 6.400000e-01 0.000000e+00
5.845431e-01 5.583702e-01 0.000000e+00
5.843052e-01 5.958963e-01 0.000000e+00
6.151845e-01 5.586594e-01 0.000000e+00
6.149707e-01 5.960633e-01 0.000000e+00
5.843052e-01 5.958963e-01 0.000000e+00
5.842055e-01 6.400000e-01 0.000000e+00
6.149707e-01 5.960633e-01 0.000000e+00
6.148983e-01 6.400000e-01 0.000000e+00
6.151845e-01 5.586594e-01 0.000000e+00
6.149707e-01 5.960633e-01 0.000000e+00
6.457994e-01 5.589640e-01 0.000000e+00
6.456230e-01 5.962418e-01 0.000000e+00
6.149707e-01 5.960633e-01 0.000000e+00
6.148983e-01 6.400000e-01 0.000000e+00
6.456230e-01 5.962418e-01 0.000000e+00
6.455901e-01 6.400000e-01 0.000000e+00
6.457994e-01 5.589640e-01 0.000000e+00
6.456230e-01 5.962418e-01 0.000000e+00
6.763836e-01 5.592845e-01 0.000000e+00
6.762619e-01 5.964330e-01 0.000000e+00
6.456230e-01 5.962418e-01 0.000000e+00
6.455901e-01 6.400000e-01 0.000000e+00
6.762619e-01 5.964330e-01 0.000000e+00
6.762842e-01 6.400000e-01 0.000000e+00
6.763836e-01 5.592845e-01 0.000000e+00
6.762619e-01 5.964330e-01 0.000000e+00
7.069316e-01 5.596216e-01 0.000000e+00
7.068875e-01 5.966385e-01 0.000000e+00
6.762619e-01 5.964330e-01 0.000000e+00
6.762842e-01 6.400000e-01 0.000000e+00
7.068875e-01 5.966385e-01 0.000000e+00
7.069858e-01 6.400000e-01 0.000000e+00
7.069316e-01 5.596216e-01 0.000000e+00
7.068875e-01 5.966385e-01 0.000000e+00
7.374366e-01 5.599759e-01 0.000000e+00
7.375002e-01 5.968602e-01 0.000000e+00
7.068875e-01 5.966385e-01 0.000000e+00
7.069858e-01 6.400000e-01 0.000000e+00
7.375002e-01 5.968602e-01 0.000000e+00
7.377017e-01 6.400000e-01 0.000000e+00
7.374366e-01 5.599759e-01 0.000000e+00
7.375002e-01 5.968602e-01 0.000000e+00
7.678901e-01 5.603484e-01 0.000000e+00
7.681008e-01 5.971009e-01 0.000000e+00
7.375002e-01 5.968602e-01 0.000000e+00
7.377017e-01 6.400000e-01 0.000000e+00
7.681008e-01 5.971009e-01 0.000000e+00
7.684409e-01 6.400000e-01 0.000000e+00
7.678901e-01 5.603484e-01 0.000000e+00
7.681008e-01 5.971009e-01 0.000000e+00
7.982810e-01 5.607399e-01 0.000000e+00
7.986903e-01 5.973633e-01 0.000000e+00
7.681008e-01 5.971009e-01 0.000000e+00
7.684409e-01 6.400000e-01 0.000000e+00
7.986903e-01 5.973633e-01 0.000000e+00
7.992159e-01 6.400000e-01 0.000000e+00
7.982810e-01 5.607399e-01 0.000000e+00
7.986903e-01 5.973633e-01 0.000000e+00
8.285952e-01 5.611510e-01 0.000000e+00
8.292702e-01 5.976508e-01 0.000000e+00
7.986903e-01 5.973633e-01 0.000000e+00
7.992159e-01 6.400000e-01 0.000000e+00
8.292702e-01 5.976508e-01 0.000000e+00
8.300427e-01 6.400000e-01 0.000000e+00
8.285952e-01 5.611510e-01 0.000000e+00
8.292702e-01 5.976508e-01 0.000000e+00
8.588144e-01 5.615810e-01 0.000000e+00
8.598419e-01 5.979670e-01 0.000000e+00
8.292702e-01 5.976508e-01 0.000000e+00
8.300427e-01 6.400000e-01 0.000000e+00
8.598419e-01 5.979670e-01 0.000000e+00
8.609425e-01 6.400000e-01 0.000000e+00
8.588144e-01 5.615810e-01 0.000000e+00
8.598419e-01 5.979670e-01 0.000000e+00
8.889147e-01 5.620271e-01 0.000000e+00
8.904058e-01 5.983143e-01 0.000000e+00
8.598419e-01 5.979670e-01 0.000000e+00
8.609425e-01 6.400000e-01 0.000000e+00
8.904058e-01 5.983143e-01 0.000000e+00
8.919421e-01 6.400000e-01 0.000000e+00
8.889147e-01 5.620271e-01 0.000000e+00
8.904058e-01 5.983143e-01 0.000000e+00
9.188650e-01 5.624814e-01 0.000000e+00
9.209592e-01 5.986919e-01 0.000000e+00
8.904058e-01 5.983143e-01 0.000000e+00
8.919421e-01 6.400000e-01 0.000000e+00
9.209592e-01 5.986919e-01 0.000000e+00
9.230749e-01 6.400000e-01 0.000000e+00
9.188650e-01 5.624814e-01 0.000000e+00
9.209592e-01 5.986919e-01 0.000000e+00
9.486244e-01 5.629250e-01 0.000000e+00
9.514915e-01 5.990900e-01 0.000000e+00
9.209592e-01 5.986919e-01 0.000000e+00
9.230749e-01 6.400000e-01 0.000000e+00
9.514915e-01 5.990900e-01 0.000000e+00
9.543793e-01 6.400000e-01 0.000000e+00
9.486244e-01 5.629250e-01 0.000000e+00
[...]
<PointData>
<DataArray type="Float32" Name="V1" format="ascii">
3.386887e+01
1.157163e+01
3.388279e+01
1.158556e+01
1.222540e+01
1.690237e+00
1.223182e+01
1.696652e+00
3.388995e+01
1.157722e+01
3.392523e+01
1.161251e+01
1.223670e+01
1.694071e+00
1.225329e+01
1.710655e+00
3.394131e+01
1.159650e+01
3.400030e+01
1.165549e+01
1.226292e+01
1.705297e+00
1.229110e+01
1.733483e+00
3.402435e+01
1.163141e+01
3.410721e+01
1.171427e+01
1.230527e+01
1.725108e+00
1.234507e+01
1.764905e+00
3.413928e+01
1.168204e+01
3.424620e+01
1.178896e+01
1.236386e+01
1.753550e+00
1.241534e+01
1.805030e+00
3.428634e+01
1.174853e+01
3.441759e+01
1.187977e+01
1.243883e+01
1.790684e+00
1.250213e+01
1.853983e+00
3.446586e+01
1.183107e+01
3.462173e+01
1.198694e+01
1.253038e+01
1.836621e+00
1.260568e+01
1.911919e+00
3.467821e+01
1.192989e+01
3.485907e+01
1.211075e+01
1.263878e+01
1.891502e+00
1.272630e+01
1.979025e+00
3.492383e+01
1.204529e+01
3.513009e+01
1.225155e+01
1.276433e+01
1.955499e+00
1.286436e+01
2.055523e+00
3.520319e+01
1.217760e+01
3.543532e+01
1.240973e+01
1.290741e+01
2.028833e+00
1.302026e+01
2.141685e+00
3.551681e+01
1.232723e+01
3.577532e+01
1.258574e+01
1.306844e+01
2.111760e+00
1.319451e+01
2.237830e+00
3.586524e+01
1.249463e+01
3.615068e+01
1.278008e+01
1.324791e+01
2.204595e+00
1.338766e+01
2.344343e+00
3.624902e+01
1.268036e+01
3.656198e+01
1.299331e+01
1.344641e+01
2.307715e+00
1.360038e+01
2.461683e+00
3.666867e+01
1.288501e+01
3.700973e+01
1.322608e+01
1.366457e+01
2.421575e+00
1.383340e+01
2.590405e+00
3.712463e+01
1.310932e+01
3.749439e+01
1.347908e+01
1.390316e+01
2.546722e+00
1.408762e+01
2.731180e+00
3.761721e+01
1.335409e+01
3.801624e+01
1.375312e+01
1.416302e+01
2.683831e+00
1.436403e+01
2.884837e+00
3.814653e+01
1.362029e+01
3.857533e+01
1.404909e+01
1.444516e+01
2.833725e+00
1.466382e+01
3.052388e+00
3.871238e+01
1.390904e+01
3.917132e+01
1.436798e+01
1.475071e+01
2.997425e+00
1.498839e+01
3.235104e+00
3.931410e+01
1.422164e+01
3.980337e+01
1.471091e+01
1.508104e+01
3.176211e+00
1.533941e+01
3.434582e+00
3.995037e+01
1.455968e+01
4.046988e+01
1.507918e+01
1.543771e+01
3.371694e+00
1.571887e+01
3.652850e+00
4.061894e+01
1.492503e+01
4.116816e+01
1.547425e+01
1.582263e+01
3.585933e+00
1.612921e+01
3.892515e+00
4.131626e+01
1.532002e+01
4.189409e+01
1.589784e+01
1.623805e+01
3.821575e+00
1.657343e+01
4.156955e+00
4.203702e+01
1.574751e+01
4.264149e+01
1.635198e+01
1.668675e+01
4.082066e+00
1.705528e+01
4.450590e+00
4.277345e+01
1.621108e+01
4.340146e+01
1.683908e+01
1.717211e+01
4.371928e+00
1.757945e+01
4.779267e+00
4.351457e+01
1.671526e+01
4.416140e+01
1.736209e+01
1.769832e+01
4.697180e+00
1.815194e+01
5.150806e+00
4.424503e+01
1.726586e+01
4.490379e+01
1.792461e+01
1.827053e+01
5.065924e+00
1.878039e+01
5.575791e+00
4.494384e+01
1.787024e+01
4.560474e+01
1.853114e+01
1.889507e+01
5.489289e+00
1.947461e+01
6.068834e+00
4.558279e+01
1.853779e+01
4.623227e+01
1.918727e+01
1.957948e+01
5.982912e+00
2.024710e+01
6.650531e+00
4.612479e+01
1.928033e+01
4.674464e+01
1.990017e+01
2.033226e+01
6.569492e+00
2.111368e+01
7.350918e+00
4.652236e+01
2.011253e+01
4.708936e+01
2.067953e+01
2.116154e+01
7.283549e+00
2.209388e+01
8.215888e+00
4.671684e+01
2.105281e+01
4.720434e+01
2.154031e+01
2.207164e+01
8.180875e+00
2.321109e+01
9.320316e+00
4.663913e+01
2.212631e+01
4.702436e+01
2.251154e+01
2.305431e+01
9.358975e+00
2.449226e+01
1.079693e+01
4.621398e+01
2.337603e+01
4.650078e+01
2.366283e+01
2.407053e+01
1.100161e+01
2.596907e+01
1.290015e+01
4.536564e+01
2.490402e+01
4.564466e+01
2.518303e+01
2.500433e+01
1.350314e+01
2.763889e+01
1.613770e+01
4.406712e+01
2.698894e+01
4.450840e+01
2.743022e+01
2.567078e+01
1.811540e+01
2.867514e+01
2.111976e+01
4.319912e+01
2.887258e+01
4.357363e+01
2.924709e+01
2.772119e+01
2.154067e+01
2.931294e+01
2.313242e+01
4.284945e+01
2.997725e+01
4.343008e+01
3.055788e+01
2.912131e+01
2.320066e+01
3.045739e+01
2.453674e+01
4.304997e+01
3.092661e+01
4.380824e+01
3.168488e+01
3.031889e+01
2.460471e+01
3.151562e+01
2.580145e+01
4.366674e+01
3.183028e+01
4.458259e+01
3.274613e+01
3.147797e+01
2.581765e+01
3.257382e+01
2.691351e+01
4.457947e+01
3.274585e+01
4.560827e+01
3.377465e+01
3.260576e+01
2.688600e+01
3.361417e+01
2.789441e+01
4.569812e+01
3.367185e+01
4.680135e+01
3.477508e+01
3.370320e+01
2.782996e+01
3.463464e+01
2.876140e+01
4.695529e+01
3.459973e+01
4.810113e+01
3.574556e+01
3.476663e+01
2.866863e+01
3.562918e+01
2.953118e+01
4.830005e+01
3.551897e+01
4.946298e+01
3.668190e+01
3.579204e+01
2.941810e+01
3.659217e+01
3.021823e+01
4.969293e+01
3.642019e+01
5.085266e+01
3.757992e+01
3.677565e+01
3.009181e+01
3.751854e+01
3.083471e+01
5.110292e+01
3.729560e+01
5.224340e+01
3.843608e+01
3.771439e+01
3.070061e+01
3.840423e+01
3.139045e+01
5.250553e+01
3.813905e+01
5.361417e+01
3.924769e+01
3.860589e+01
3.125314e+01
3.924610e+01
3.189334e+01
5.388136e+01
3.894582e+01
5.494837e+01
4.001283e+01
3.944850e+01
3.175625e+01
4.004189e+01
3.234963e+01
5.521512e+01
3.971239e+01
5.623296e+01
4.073022e+01
4.024113e+01
3.221535e+01
4.079004e+01
3.276426e+01
5.649484e+01
4.043620e+01
5.745777e+01
4.139913e+01
4.098316e+01
3.263471e+01
4.148958e+01
3.314113e+01
5.771122e+01
4.111547e+01
5.861496e+01
4.201921e+01
4.167433e+01
3.301772e+01
4.213994e+01
3.348333e+01
5.885711e+01
4.174898e+01
5.969853e+01
4.259040e+01
4.231465e+01
3.336709e+01
4.274091e+01
3.379335e+01
5.992714e+01
4.233599e+01
6.070401e+01
4.311286e+01
4.290434e+01
3.368498e+01
4.329250e+01
3.407314e+01
6.091730e+01
4.287611e+01
6.162808e+01
4.358690e+01
4.344376e+01
3.397317e+01
4.379490e+01
3.432431e+01
6.182467e+01
4.336919e+01
6.246838e+01
4.401290e+01
4.393335e+01
3.423306e+01
4.424843e+01
3.454813e+01
6.264722e+01
4.381526e+01
6.322326e+01
4.439130e+01
4.437362e+01
3.446583e+01
4.465345e+01
3.474566e+01
6.338355e+01
4.421449e+01
6.389162e+01
4.472256e+01
4.476507e+01
3.467243e+01
4.501038e+01
3.491774e+01
6.403277e+01
4.456712e+01
6.447276e+01
4.500712e+01
4.510824e+01
3.485366e+01
4.531964e+01
3.506506e+01
6.459433e+01
4.487344e+01
6.496629e+01
4.524540e+01
4.540361e+01
3.501016e+01
4.558163e+01
3.518818e+01
6.506796e+01
4.513373e+01
6.537200e+01
4.543778e+01
4.565164e+01
3.514246e+01
4.579670e+01
3.528752e+01
6.545355e+01
4.534830e+01
6.568982e+01
4.558457e+01
4.585272e+01
3.525098e+01
4.596519e+01
3.536345e+01
6.575109e+01
4.551738e+01
6.591973e+01
4.568602e+01
4.600720e+01
3.533606e+01
4.608734e+01
3.541620e+01
6.596062e+01
4.564120e+01
6.606176e+01
4.574233e+01
4.611535e+01
3.539796e+01
4.616336e+01
3.544596e+01
6.608222e+01
4.571991e+01
6.611592e+01
4.575361e+01
4.617736e+01
3.543684e+01
4.619335e+01
3.545283e+01
</DataArray>
<DataArray type="Float32" Name="V2" format="ascii">
5.556661e-01
5.943994e-01
5.562709e-01
5.949865e-01
5.943994e-01
6.400000e-01
5.949865e-01
6.405685e-01
5.562709e-01
5.949865e-01
5.580792e-01
5.967468e-01
5.949865e-01
6.405685e-01
5.967468e-01
6.422729e-01
5.580792e-01
5.967468e-01
5.610901e-01
5.996777e-01
5.967468e-01
6.422729e-01
5.996777e-01
6.451109e-01
5.610901e-01
5.996777e-01
5.652988e-01
6.037747e-01
5.996777e-01
6.451109e-01
6.037747e-01
6.490780e-01
5.652988e-01
6.037747e-01
5.706991e-01
6.090316e-01
6.037747e-01
6.490780e-01
6.090316e-01
6.541683e-01
5.706991e-01
6.090316e-01
5.772827e-01
6.154405e-01
6.090316e-01
6.541683e-01
6.154405e-01
6.603740e-01
5.772827e-01
6.154405e-01
5.850395e-01
6.229916e-01
6.154405e-01
6.603740e-01
6.229916e-01
6.676859e-01
5.850395e-01
6.229916e-01
5.939579e-01
6.316735e-01
6.229916e-01
6.676859e-01
6.316735e-01
6.760926e-01
5.939579e-01
6.316735e-01
6.040240e-01
6.414730e-01
6.316735e-01
6.760926e-01
6.414730e-01
6.855816e-01
6.040240e-01
6.414730e-01
6.152225e-01
6.523752e-01
6.414730e-01
6.855816e-01
6.523752e-01
6.961384e-01
6.152225e-01
6.523752e-01
6.275362e-01
6.643635e-01
6.523752e-01
6.961384e-01
6.643635e-01
7.077470e-01
6.275362e-01
6.643635e-01
6.409462e-01
6.774195e-01
6.643635e-01
7.077470e-01
6.774195e-01
7.203896e-01
6.409462e-01
6.774195e-01
6.554317e-01
6.915235e-01
6.774195e-01
7.203896e-01
6.915235e-01
7.340471e-01
6.554317e-01
6.915235e-01
6.709703e-01
7.066538e-01
6.915235e-01
7.340471e-01
7.066538e-01
7.486986e-01
6.709703e-01
7.066538e-01
6.875378e-01
7.227873e-01
7.066538e-01
7.486986e-01
7.227873e-01
7.643220e-01
6.875378e-01
7.227873e-01
7.051083e-01
7.398994e-01
7.227873e-01
7.643220e-01
7.398994e-01
7.808933e-01
7.051083e-01
7.398994e-01
7.236541e-01
7.579637e-01
7.398994e-01
7.808933e-01
7.579637e-01
7.983877e-01
7.236541e-01
7.579637e-01
7.431460e-01
7.769528e-01
7.579637e-01
7.983877e-01
7.769528e-01
8.167787e-01
7.431460e-01
7.769528e-01
7.635526e-01
7.968376e-01
7.769528e-01
8.167787e-01
7.968376e-01
8.360387e-01
7.635526e-01
7.968376e-01
7.848412e-01
8.175878e-01
7.968376e-01
8.360387e-01
8.175878e-01
8.561394e-01
7.848412e-01
8.175878e-01
8.069768e-01
8.391720e-01
8.175878e-01
8.561394e-01
8.391720e-01
8.770513e-01
8.069768e-01
8.391720e-01
8.299226e-01
8.615576e-01
8.391720e-01
8.770513e-01
8.615576e-01
8.987446e-01
8.299226e-01
8.615576e-01
8.536397e-01
8.847110e-01
8.615576e-01
8.987446e-01
8.847110e-01
9.211891e-01
8.536397e-01
8.847110e-01
8.780866e-01
9.085978e-01
8.847110e-01
9.211891e-01
9.085978e-01
9.443550e-01
8.780866e-01
9.085978e-01
9.032191e-01
9.331828e-01
9.085978e-01
9.443550e-01
9.331828e-01
9.682128e-01
9.032191e-01
9.331828e-01
9.289896e-01
9.584304e-01
9.331828e-01
9.682128e-01
9.584304e-01
9.927349e-01
9.289896e-01
9.584304e-01
9.553462e-01
9.843037e-01
9.584304e-01
9.927349e-01
9.843037e-01
1.017895e+00
9.553462e-01
9.843037e-01
9.822312e-01
1.010765e+00
9.843037e-01
1.017895e+00
1.010765e+00
1.043672e+00
9.822312e-01
1.010765e+00
1.009580e+00
1.037774e+00
1.010765e+00
1.043672e+00
1.037774e+00
1.070045e+00
1.009580e+00
1.037774e+00
1.037315e+00
1.065284e+00
1.037774e+00
1.070045e+00
1.065284e+00
1.097004e+00
1.037315e+00
1.065284e+00
1.065344e+00
1.093235e+00
1.065284e+00
1.097004e+00
1.093235e+00
1.124538e+00
1.065344e+00
1.093235e+00
1.093543e+00
1.121538e+00
1.093235e+00
1.124538e+00
1.121538e+00
1.152638e+00
1.093543e+00
1.121538e+00
1.121730e+00
1.150025e+00
1.121538e+00
1.152638e+00
1.150025e+00
1.181273e+00
1.121730e+00
1.150025e+00
1.149614e+00
1.178367e+00
1.150025e+00
1.181273e+00
1.178367e+00
1.210315e+00
1.149614e+00
1.178367e+00
1.176843e+00
1.206056e+00
1.178367e+00
1.210315e+00
1.206056e+00
1.238545e+00
1.176843e+00
1.206056e+00
1.202697e+00
1.232160e+00
1.206056e+00
1.238545e+00
1.232160e+00
1.264660e+00
1.202697e+00
1.232160e+00
1.227049e+00
1.256877e+00
1.232160e+00
1.264660e+00
1.256877e+00
1.289610e+00
1.227049e+00
1.256877e+00
1.249910e+00
1.280196e+00
1.256877e+00
1.289610e+00
1.280196e+00
1.313264e+00
1.249910e+00
1.280196e+00
1.271376e+00
1.302156e+00
1.280196e+00
1.313264e+00
1.302156e+00
1.335619e+00
1.271376e+00
1.302156e+00
1.291518e+00
1.322781e+00
1.302156e+00
1.335619e+00
1.322781e+00
1.356664e+00
1.291518e+00
1.322781e+00
1.310403e+00
1.342115e+00
1.322781e+00
1.356664e+00
1.342115e+00
1.376415e+00
1.310403e+00
1.342115e+00
1.328090e+00
1.360204e+00
1.342115e+00
1.376415e+00
1.360204e+00
1.394902e+00
1.328090e+00
1.360204e+00
1.344634e+00
1.377099e+00
1.360204e+00
1.394902e+00
1.377099e+00
1.412163e+00
1.344634e+00
1.377099e+00
1.360084e+00
1.392851e+00
1.377099e+00
1.412163e+00
1.392851e+00
1.428246e+00
1.360084e+00
1.392851e+00
1.374488e+00
1.407510e+00
1.392851e+00
1.428246e+00
1.407510e+00
1.443198e+00
1.374488e+00
1.407510e+00
1.387889e+00
1.421124e+00
1.407510e+00
1.443198e+00
1.421124e+00
1.457068e+00
1.387889e+00
1.421124e+00
1.400327e+00
1.433738e+00
1.421124e+00
1.457068e+00
1.433738e+00
1.469903e+00
1.400327e+00
1.433738e+00
1.411840e+00
1.445394e+00
1.433738e+00
1.469903e+00
1.445394e+00
1.481748e+00
1.411840e+00
1.445394e+00
1.422462e+00
1.456131e+00
1.445394e+00
1.481748e+00
1.456131e+00
1.492646e+00
1.422462e+00
1.456131e+00
1.432225e+00
1.465986e+00
1.456131e+00
1.492646e+00
1.465986e+00
1.502636e+00
1.432225e+00
1.465986e+00
1.441157e+00
1.474990e+00
1.465986e+00
1.502636e+00
1.474990e+00
1.511753e+00
1.441157e+00
1.474990e+00
1.449284e+00
1.483173e+00
1.474990e+00
1.511753e+00
1.483173e+00
1.520030e+00
1.449284e+00
1.483173e+00
1.456630e+00
1.490562e+00
1.483173e+00
1.520030e+00
1.490562e+00
1.527496e+00
1.456630e+00
1.490562e+00
1.463216e+00
1.497180e+00
1.490562e+00
1.527496e+00
1.497180e+00
1.534178e+00
1.463216e+00
1.497180e+00
1.469061e+00
1.503049e+00
1.497180e+00
1.534178e+00
1.503049e+00
1.540098e+00
1.469061e+00
1.503049e+00
1.474181e+00
1.508186e+00
1.503049e+00
1.540098e+00
1.508186e+00
1.545276e+00
1.474181e+00
1.508186e+00
1.478590e+00
1.512607e+00
1.508186e+00
1.545276e+00
1.512607e+00
1.549730e+00
1.478590e+00
1.512607e+00
1.482301e+00
1.516326e+00
1.512607e+00
1.549730e+00
1.516326e+00
1.553475e+00
1.482301e+00
1.516326e+00
1.485323e+00
1.519353e+00
1.516326e+00
1.553475e+00
1.519353e+00
1.556523e+00
1.485323e+00
1.519353e+00
1.487665e+00
1.521699e+00
1.519353e+00
1.556523e+00
1.521699e+00
1.558883e+00
1.487665e+00
1.521699e+00
1.489334e+00
1.523370e+00
1.521699e+00
1.558883e+00
1.523370e+00
1.560563e+00
1.489334e+00
1.523370e+00
1.490333e+00
1.524370e+00
1.523370e+00
1.560563e+00
1.524370e+00
1.561569e+00
1.490333e+00
1.524370e+00
1.490666e+00
1.524703e+00
1.524370e+00
1.561569e+00
1.524703e+00
1.561904e+00
</DataArray>
<DataArray type="Float32" Name="V3" format="ascii">
0.000000e+00
0.000000e+00
1.694922e-02
1.596349e-02
0.000000e+00
0.000000e+00
1.596349e-02
1.481504e-02
1.694922e-02
1.596349e-02
3.384792e-02
3.187757e-02
1.596349e-02
1.481504e-02
3.187757e-02
2.958200e-02
3.384792e-02
3.187757e-02
5.064536e-02
4.769284e-02
3.187757e-02
2.958200e-02
4.769284e-02
4.425293e-02
5.064536e-02
4.769284e-02
6.729107e-02
6.336004e-02
4.769284e-02
4.425293e-02
6.336004e-02
5.877994e-02
6.729107e-02
6.336004e-02
8.373477e-02
7.883007e-02
6.336004e-02
5.877994e-02
7.883007e-02
7.311533e-02
8.373477e-02
7.883007e-02
9.992638e-02
9.405405e-02
7.883007e-02
7.311533e-02
9.405405e-02
8.721160e-02
9.992638e-02
9.405405e-02
1.158161e-01
1.089834e-01
9.405405e-02
8.721160e-02
1.089834e-01
1.010216e-01
1.158161e-01
1.089834e-01
1.313545e-01
1.235699e-01
1.089834e-01
1.010216e-01
1.235699e-01
1.144983e-01
1.313545e-01
1.235699e-01
1.464925e-01
1.377657e-01
1.235699e-01
1.144983e-01
1.377657e-01
1.275955e-01
1.464925e-01
1.377657e-01
1.611815e-01
1.515234e-01
1.377657e-01
1.275955e-01
1.515234e-01
1.402671e-01
1.611815e-01
1.515234e-01
1.753734e-01
1.647961e-01
1.515234e-01
1.402671e-01
1.647961e-01
1.524676e-01
1.753734e-01
1.647961e-01
1.890206e-01
1.775375e-01
1.647961e-01
1.524676e-01
1.775375e-01
1.641522e-01
1.890206e-01
1.775375e-01
2.020761e-01
1.897019e-01
1.775375e-01
1.641522e-01
1.897019e-01
1.752768e-01
2.020761e-01
1.897019e-01
2.144936e-01
2.012442e-01
1.897019e-01
1.752768e-01
2.012442e-01
1.857978e-01
2.144936e-01
2.012442e-01
2.262272e-01
2.121202e-01
2.012442e-01
1.857978e-01
2.121202e-01
1.956726e-01
2.262272e-01
2.121202e-01
2.372321e-01
2.222862e-01
2.121202e-01
1.956726e-01
2.222862e-01
2.048597e-01
2.372321e-01
2.222862e-01
2.474638e-01
2.316997e-01
2.222862e-01
2.048597e-01
2.316997e-01
2.133183e-01
2.474638e-01
2.316997e-01
2.568788e-01
2.403187e-01
2.316997e-01
2.133183e-01
2.403187e-01
2.210088e-01
2.568788e-01
2.403187e-01
2.654340e-01
2.481024e-01
2.403187e-01
2.210088e-01
2.481024e-01
2.278932e-01
2.654340e-01
2.481024e-01
2.730872e-01
2.550108e-01
2.481024e-01
2.278932e-01
2.550108e-01
2.339344e-01
2.730872e-01
2.550108e-01
2.797967e-01
2.610050e-01
2.550108e-01
2.339344e-01
2.610050e-01
2.390974e-01
2.797967e-01
2.610050e-01
2.855213e-01
2.660470e-01
2.610050e-01
2.390974e-01
2.660470e-01
2.433487e-01
2.855213e-01
2.660470e-01
2.902202e-01
2.700999e-01
2.660470e-01
2.433487e-01
2.700999e-01
2.466568e-01
2.902202e-01
2.700999e-01
2.938530e-01
2.731279e-01
2.700999e-01
2.466568e-01
2.731279e-01
2.489929e-01
2.938530e-01
2.731279e-01
2.963793e-01
2.750964e-01
2.731279e-01
2.489929e-01
2.750964e-01
2.503304e-01
2.963793e-01
2.750964e-01
2.977585e-01
2.759714e-01
2.750964e-01
2.503304e-01
2.759714e-01
2.506461e-01
2.977585e-01
2.759714e-01
2.979499e-01
2.757203e-01
2.759714e-01
2.506461e-01
2.757203e-01
2.499201e-01
2.979499e-01
2.757203e-01
2.969127e-01
2.743113e-01
2.757203e-01
2.499201e-01
2.743113e-01
2.481362e-01
2.969127e-01
2.743113e-01
2.946062e-01
2.717134e-01
2.743113e-01
2.481362e-01
2.717134e-01
2.452825e-01
2.946062e-01
2.717134e-01
2.909912e-01
2.678969e-01
2.717134e-01
2.452825e-01
2.678969e-01
2.413512e-01
2.909912e-01
2.678969e-01
2.860338e-01
2.628346e-01
2.678969e-01
2.413512e-01
2.628346e-01
2.363369e-01
2.860338e-01
2.628346e-01
2.797138e-01
2.565064e-01
2.628346e-01
2.363369e-01
2.565064e-01
2.302304e-01
2.797138e-01
2.565064e-01
2.720477e-01
2.489160e-01
2.565064e-01
2.302304e-01
2.489160e-01
2.229991e-01
2.720477e-01
2.489160e-01
2.631440e-01
2.401338e-01
2.489160e-01
2.229991e-01
2.401338e-01
2.145267e-01
2.631440e-01
2.401338e-01
2.533725e-01
2.305527e-01
2.401338e-01
2.145267e-01
2.305527e-01
2.048670e-01
2.533725e-01
2.305527e-01
2.434589e-01
2.211424e-01
2.305527e-01
2.048670e-01
2.211424e-01
1.964342e-01
2.434589e-01
2.211424e-01
2.336445e-01
2.120728e-01
2.211424e-01
1.964342e-01
2.120728e-01
1.885690e-01
2.336445e-01
2.120728e-01
2.240630e-01
2.034191e-01
2.120728e-01
1.885690e-01
2.034191e-01
1.811553e-01
2.240630e-01
2.034191e-01
2.146878e-01
1.950842e-01
2.034191e-01
1.811553e-01
1.950842e-01
1.740752e-01
2.146878e-01
1.950842e-01
2.054911e-01
1.869904e-01
1.950842e-01
1.740752e-01
1.869904e-01
1.672385e-01
2.054911e-01
1.869904e-01
1.964386e-01
1.790685e-01
1.869904e-01
1.672385e-01
1.790685e-01
1.605648e-01
1.964386e-01
1.790685e-01
1.874988e-01
1.712618e-01
1.790685e-01
1.605648e-01
1.712618e-01
1.539858e-01
1.874988e-01
1.712618e-01
1.786429e-01
1.635234e-01
1.712618e-01
1.539858e-01
1.635234e-01
1.474452e-01
1.786429e-01
1.635234e-01
1.698453e-01
1.558156e-01
1.635234e-01
1.474452e-01
1.558156e-01
1.408977e-01
1.698453e-01
1.558156e-01
1.610843e-01
1.481083e-01
1.558156e-01
1.408977e-01
1.481083e-01
1.343078e-01
1.610843e-01
1.481083e-01
1.523413e-01
1.403778e-01
1.481083e-01
1.343078e-01
1.403778e-01
1.276491e-01
1.523413e-01
1.403778e-01
1.436010e-01
1.326062e-01
1.403778e-01
1.276491e-01
1.326062e-01
1.209021e-01
1.436010e-01
1.326062e-01
1.348508e-01
1.247804e-01
1.326062e-01
1.209021e-01
1.247804e-01
1.140537e-01
1.348508e-01
1.247804e-01
1.260811e-01
1.168912e-01
1.247804e-01
1.140537e-01
1.168912e-01
1.070958e-01
1.260811e-01
1.168912e-01
1.172845e-01
1.089326e-01
1.168912e-01
1.070958e-01
1.089326e-01
1.000246e-01
1.172845e-01
1.089326e-01
1.084557e-01
1.009018e-01
1.089326e-01
1.000246e-01
1.009018e-01
9.283950e-02
1.084557e-01
1.009018e-01
9.959129e-02
9.279793e-02
1.009018e-01
9.283950e-02
9.279793e-02
8.554265e-02
9.959129e-02
9.279793e-02
9.068954e-02
8.462221e-02
9.279793e-02
8.554265e-02
8.462221e-02
7.813836e-02
9.068954e-02
8.462221e-02
8.175005e-02
7.637741e-02
8.462221e-02
7.813836e-02
7.637741e-02
7.063268e-02
8.175005e-02
7.637741e-02
7.277362e-02
6.806757e-02
7.637741e-02
7.063268e-02
6.806757e-02
6.303300e-02
7.277362e-02
6.806757e-02
6.376211e-02
5.969781e-02
6.806757e-02
6.303300e-02
5.969781e-02
5.534776e-02
6.376211e-02
5.969781e-02
5.471819e-02
5.127405e-02
5.969781e-02
5.534776e-02
5.127405e-02
4.758626e-02
5.471819e-02
5.127405e-02
4.564529e-02
4.280293e-02
5.127405e-02
4.758626e-02
4.280293e-02
3.975842e-02
4.564529e-02
4.280293e-02
3.654739e-02
3.429159e-02
4.280293e-02
3.975842e-02
3.429159e-02
3.187467e-02
3.654739e-02
3.429159e-02
2.742897e-02
2.574763e-02
3.429159e-02
3.187467e-02
2.574763e-02
2.394581e-02
2.742897e-02
2.574763e-02
1.829484e-02
1.717894e-02
2.574763e-02
2.394581e-02
1.717894e-02
1.598288e-02
1.829484e-02
1.717894e-02
9.150093e-03
8.593640e-03
1.717894e-02
1.598288e-02
8.593640e-03
7.997157e-03
9.150093e-03
8.593640e-03
0.000000e+00
0.000000e+00
8.593640e-03
7.997157e-03
0.000000e+00
0.000000e+00
</DataArray>
<DataArray type="Float32" Name="V4" format="ascii">
8.500000e-01
9.250000e-01
8.500000e-01
9.250000e-01
9.250000e-01
1.000000e+00