<?xml version="1.0"?>
<VTKFile type="UnstructuredGrid" version="0.1" byte_order="LittleEndian" compressor="vtkZLibDataCompressor">
<UnstructuredGrid>
<Piece NumberOfPoints="504" NumberOfCells="126">
<Points>
<DataArray type="Float32" NumberOfComponents="3" format="ascii">
0.000000e+00 4.533606e-01 0.000000e+00
0.000000e+00 4.816854e-01 0.000000e+00
3.602501e-02 4.533687e-01 0.000000e+00
3.601815e-02 4.816880e-01 0.000000e+00
0.000000e+00 4.816854e-01 0.000000e+00
0.000000e+00 5.150000e-01 0.000000e+00
3.601815e-02 4.816880e-01 0.000000e+00
3.601445e-02 5.150000e-01 0.000000e+00
3.602501e-02 4.533687e-01 0.000000e+00
3.601815e-02 4.816880e-01 0.000000e+00
7.204903e-02 4.533840e-01 0.000000e+00
7.203525e-02 4.816963e-01 0.000000e+00
3.601815e-02 4.816880e-01 0.000000e+00
3.601445e-02 5.150000e-01 0.000000e+00
7.203525e-02 4.816963e-01 0.000000e+00
7.202777e-02 5.150000e-01 0.000000e+00
7.204903e-02 4.533840e-01 0.000000e+00
7.203525e-02 4.816963e-01 0.000000e+00
1.080707e-01 4.534094e-01 0.000000e+00
1.080501e-01 4.817100e-01 0.000000e+00
7.203525e-02 4.816963e-01 0.000000e+00
7.202777e-02 5.150000e-01 0.000000e+00
1.080501e-01 4.817100e-01 0.000000e+00
1.080389e-01 5.150000e-01 0.000000e+00
1.080707e-01 4.534094e-01 0.000000e+00
1.080501e-01 4.817100e-01 0.000000e+00
1.440889e-01 4.534449e-01 0.000000e+00
1.440614e-01 4.817293e-01 0.000000e+00
1.080501e-01 4.817100e-01 0.000000e+00
1.080389e-01 5.150000e-01 0.000000e+00
1.440614e-01 4.817293e-01 0.000000e+00
1.440465e-01 5.150000e-01 0.000000e+00
1.440889e-01 4.534449e-01 0.000000e+00
1.440614e-01 4.817293e-01 0.000000e+00
1.801024e-01 4.534906e-01 0.000000e+00
1.800682e-01 4.817541e-01 0.000000e+00
1.440614e-01 4.817293e-01 0.000000e+00
1.440465e-01 5.150000e-01 0.000000e+00
1.800682e-01 4.817541e-01 0.000000e+00
1.800497e-01 5.150000e-01 0.000000e+00
1.801024e-01 4.534906e-01 0.000000e+00
1.800682e-01 4.817541e-01 0.000000e+00
2.161101e-01 4.535463e-01 0.000000e+00
2.160692e-01 4.817843e-01 0.000000e+00
1.800682e-01 4.817541e-01 0.000000e+00
1.800497e-01 5.150000e-01 0.000000e+00
2.160692e-01 4.817843e-01 0.000000e+00
2.160472e-01 5.150000e-01 0.000000e+00
2.161101e-01 4.535463e-01 0.000000e+00
2.160692e-01 4.817843e-01 0.000000e+00
2.521107e-01 4.536121e-01 0.000000e+00
2.520633e-01 4.818199e-01 0.000000e+00
2.160692e-01 4.817843e-01 0.000000e+00
2.160472e-01 5.150000e-01 0.000000e+00
2.520633e-01 4.818199e-01 0.000000e+00
2.520378e-01 5.150000e-01 0.000000e+00
2.521107e-01 4.536121e-01 0.000000e+00
2.520633e-01 4.818199e-01 0.000000e+00
2.881030e-01 4.536879e-01 0.000000e+00
2.880492e-01 4.818610e-01 0.000000e+00
2.520633e-01 4.818199e-01 0.000000e+00
2.520378e-01 5.150000e-01 0.000000e+00
2.880492e-01 4.818610e-01 0.000000e+00
2.880204e-01 5.150000e-01 0.000000e+00
2.881030e-01 4.536879e-01 0.000000e+00
2.880492e-01 4.818610e-01 0.000000e+00
3.240858e-01 4.537736e-01 0.000000e+00
3.240258e-01 4.819074e-01 0.000000e+00
2.880492e-01 4.818610e-01 0.000000e+00
2.880204e-01 5.150000e-01 0.000000e+00
3.240258e-01 4.819074e-01 0.000000e+00
3.239938e-01 5.150000e-01 0.000000e+00
3.240858e-01 4.537736e-01 0.000000e+00
3.240258e-01 4.819074e-01 0.000000e+00
3.600577e-01 4.538692e-01 0.000000e+00
3.599918e-01 4.819592e-01 0.000000e+00
3.240258e-01 4.819074e-01 0.000000e+00
3.239938e-01 5.150000e-01 0.000000e+00
3.599918e-01 4.819592e-01 0.000000e+00
3.599568e-01 5.150000e-01 0.000000e+00
3.600577e-01 4.538692e-01 0.000000e+00
3.599918e-01 4.819592e-01 0.000000e+00
3.960176e-01 4.539746e-01 0.000000e+00
3.959459e-01 4.820163e-01 0.000000e+00
3.599918e-01 4.819592e-01 0.000000e+00
3.599568e-01 5.150000e-01 0.000000e+00
3.959459e-01 4.820163e-01 0.000000e+00
3.959081e-01 5.150000e-01 0.000000e+00
3.960176e-01 4.539746e-01 0.000000e+00
3.959459e-01 4.820163e-01 0.000000e+00
4.319641e-01 4.540897e-01 0.000000e+00
4.318868e-01 4.820787e-01 0.000000e+00
3.959459e-01 4.820163e-01 0.000000e+00
3.959081e-01 5.150000e-01 0.000000e+00
4.318868e-01 4.820787e-01 0.000000e+00
4.318465e-01 5.150000e-01 0.000000e+00
4.319641e-01 4.540897e-01 0.000000e+00
4.318868e-01 4.820787e-01 0.000000e+00
4.678957e-01 4.542144e-01 0.000000e+00
4.678133e-01 4.821464e-01 0.000000e+00
4.318868e-01 4.820787e-01 0.000000e+00
4.318465e-01 5.150000e-01 0.000000e+00
4.678133e-01 4.821464e-01 0.000000e+00
4.677707e-01 5.150000e-01 0.000000e+00
4.678957e-01 4.542144e-01 0.000000e+00
4.678133e-01 4.821464e-01 0.000000e+00
5.038110e-01 4.543487e-01 0.000000e+00
5.037239e-01 4.822192e-01 0.000000e+00
4.678133e-01 4.821464e-01 0.000000e+00
4.677707e-01 5.150000e-01 0.000000e+00
5.037239e-01 4.822192e-01 0.000000e+00
5.036794e-01 5.150000e-01 0.000000e+00
5.038110e-01 4.543487e-01 0.000000e+00
5.037239e-01 4.822192e-01 0.000000e+00
5.397086e-01 4.544924e-01 0.000000e+00
5.396173e-01 4.822972e-01 0.000000e+00
5.037239e-01 4.822192e-01 0.000000e+00
5.036794e-01 5.150000e-01 0.000000e+00
5.396173e-01 4.822972e-01 0.000000e+00
5.395714e-01 5.150000e-01 0.000000e+00
5.397086e-01 4.544924e-01 0.000000e+00
5.396173e-01 4.822972e-01 0.000000e+00
5.755870e-01 4.546454e-01 0.000000e+00
5.754920e-01 4.823803e-01 0.000000e+00
5.396173e-01 4.822972e-01 0.000000e+00
5.395714e-01 5.150000e-01 0.000000e+00
5.754920e-01 4.823803e-01 0.000000e+00
5.754452e-01 5.150000e-01 0.000000e+00
5.755870e-01 4.546454e-01 0.000000e+00
5.754920e-01 4.823803e-01 0.000000e+00
6.114446e-01 4.548077e-01 0.000000e+00
6.113466e-01 4.824685e-01 0.000000e+00
5.754920e-01 4.823803e-01 0.000000e+00
5.754452e-01 5.150000e-01 0.000000e+00
6.113466e-01 4.824685e-01 0.000000e+00
6.112995e-01 5.150000e-01 0.000000e+00
6.114446e-01 4.548077e-01 0.000000e+00
6.113466e-01 4.824685e-01 0.000000e+00
6.472796e-01 4.549791e-01 0.000000e+00
6.471795e-01 4.825618e-01 0.000000e+00
6.113466e-01 4.824685e-01 0.000000e+00
6.112995e-01 5.150000e-01 0.000000e+00
6.471795e-01 4.825618e-01 0.000000e+00
6.471330e-01 5.150000e-01 0.000000e+00
6.472796e-01 4.549791e-01 0.000000e+00
6.471795e-01 4.825618e-01 0.000000e+00
6.830903e-01 4.551595e-01 0.000000e+00
6.829893e-01 4.826600e-01 0.000000e+00
6.471795e-01 4.825618e-01 0.000000e+00
6.471330e-01 5.150000e-01 0.000000e+00
6.829893e-01 4.826600e-01 0.000000e+00
6.829444e-01 5.150000e-01 0.000000e+00
6.830903e-01 4.551595e-01 0.000000e+00
6.829893e-01 4.826600e-01 0.000000e+00
7.188750e-01 4.553488e-01 0.000000e+00
7.187742e-01 4.827633e-01 0.000000e+00
6.829893e-01 4.826600e-01 0.000000e+00
6.829444e-01 5.150000e-01 0.000000e+00
7.187742e-01 4.827633e-01 0.000000e+00
7.187322e-01 5.150000e-01 0.000000e+00
7.188750e-01 4.553488e-01 0.000000e+00
7.187742e-01 4.827633e-01 0.000000e+00
7.546315e-01 4.555469e-01 0.000000e+00
7.545328e-01 4.828715e-01 0.000000e+00
7.187742e-01 4.827633e-01 0.000000e+00
7.187322e-01 5.150000e-01 0.000000e+00
7.545328e-01 4.828715e-01 0.000000e+00
7.544953e-01 5.150000e-01 0.000000e+00
7.546315e-01 4.555469e-01 0.000000e+00
7.545328e-01 4.828715e-01 0.000000e+00
7.903579e-01 4.557537e-01 0.000000e+00
7.902632e-01 4.829847e-01 0.000000e+00
7.545328e-01 4.828715e-01 0.000000e+00
7.544953e-01 5.150000e-01 0.000000e+00
7.902632e-01 4.829847e-01 0.000000e+00
7.902323e-01 5.150000e-01 0.000000e+00
7.903579e-01 4.557537e-01 0.000000e+00
7.902632e-01 4.829847e-01 0.000000e+00
8.260517e-01 4.559691e-01 0.000000e+00
8.259638e-01 4.831029e-01 0.000000e+00
7.902632e-01 4.829847e-01 0.000000e+00
7.902323e-01 5.150000e-01 0.000000e+00
8.259638e-01 4.831029e-01 0.000000e+00
8.259420e-01 5.150000e-01 0.000000e+00
8.260517e-01 4.559691e-01 0.000000e+00
8.259638e-01 4.831029e-01 0.000000e+00
8.617107e-01 4.561930e-01 0.000000e+00
8.616329e-01 4.832261e-01 0.000000e+00
8.259638e-01 4.831029e-01 0.000000e+00
8.259420e-01 5.150000e-01 0.000000e+00
8.616329e-01 4.832261e-01 0.000000e+00
8.616235e-01 5.150000e-01 0.000000e+00
8.617107e-01 4.561930e-01 0.000000e+00
8.616329e-01 4.832261e-01 0.000000e+00
8.973321e-01 4.564253e-01 0.000000e+00
8.972687e-01 4.833545e-01 0.000000e+00
8.616329e-01 4.832261e-01 0.000000e+00
8.616235e-01 5.150000e-01 0.000000e+00
8.972687e-01 4.833545e-01 0.000000e+00
8.972759e-01 5.150000e-01 0.000000e+00
8.973321e-01 4.564253e-01 0.000000e+00
8.972687e-01 4.833545e-01 0.000000e+00
9.329128e-01 4.566659e-01 0.000000e+00
9.328693e-01 4.834882e-01 0.000000e+00
8.972687e-01 4.833545e-01 0.000000e+00
8.972759e-01 5.150000e-01 0.000000e+00
9.328693e-01 4.834882e-01 0.000000e+00
9.328985e-01 5.150000e-01 0.000000e+00
9.329128e-01 4.566659e-01 0.000000e+00
9.328693e-01 4.834882e-01 0.000000e+00
9.684497e-01 4.569149e-01 0.000000e+00
9.684330e-01 4.836273e-01 0.000000e+00
9.328693e-01 4.834882e-01 0.000000e+00
9.328985e-01 5.150000e-01 0.000000e+00
9.684330e-01 4.836273e-01 0.000000e+00
9.684910e-01 5.150000e-01 0.000000e+00
9.684497e-01 4.569149e-01 0.000000e+00
9.684330e-01 4.836273e-01 0.000000e+00
1.003939e+00 4.571721e-01 0.000000e+00
1.003958e+00 4.837722e-01 0.000000e+00
9.684330e-01 4.836273e-01 0.000000e+00
9.684910e-01 5.150000e-01 0.000000e+00
1.003958e+00 4.837722e-01 0.000000e+00
1.004054e+00 5.150000e-01 0.000000e+00
1.003939e+00 4.571721e-01 0.000000e+00
1.003958e+00 4.837722e-01 0.000000e+00
1.039376e+00 4.574378e-01 0.000000e+00
1.039443e+00 4.839232e-01 0.000000e+00
1.003958e+00 4.837722e-01 0.000000e+00
1.004054e+00 5.150000e-01 0.000000e+00
1.039443e+00 4.839232e-01 0.000000e+00
1.039587e+00 5.150000e-01 0.000000e+00
1.039376e+00 4.574378e-01 0.000000e+00
1.039443e+00 4.839232e-01 0.000000e+00
1.074756e+00 4.577119e-01 0.000000e+00
1.074885e+00 4.840810e-01 0.000000e+00
1.039443e+00 4.839232e-01 0.000000e+00
1.039587e+00 5.150000e-01 0.000000e+00
1.074885e+00 4.840810e-01 0.000000e+00
1.075094e+00 5.150000e-01 0.000000e+00
1.074756e+00 4.577119e-01 0.000000e+00
1.074885e+00 4.840810e-01 0.000000e+00
1.110072e+00 4.579946e-01 0.000000e+00
1.110284e+00 4.842461e-01 0.000000e+00
1.074885e+00 4.840810e-01 0.000000e+00
1.075094e+00 5.150000e-01 0.000000e+00
1.110284e+00 4.842461e-01 0.000000e+00
1.110576e+00 5.150000e-01 0.000000e+00
1.110072e+00 4.579946e-01 0.000000e+00
[...]
<PointData>
<DataArray type="Float32" Name="V1" format="ascii">
1.215042e+02
4.507594e+01
1.215501e+02
4.512189e+01
4.704837e+01
9.735368e+00
4.706796e+01
9.754965e+00
1.215691e+02
4.509427e+01
1.216833e+02
4.520853e+01
4.708454e+01
9.747221e+00
4.713774e+01
9.800420e+00
1.217290e+02
4.515867e+01
1.219177e+02
4.534740e+01
4.716944e+01
9.783295e+00
4.726049e+01
9.874346e+00
1.219877e+02
4.527391e+01
1.222516e+02
4.553787e+01
4.730677e+01
9.847251e+00
4.743553e+01
9.976013e+00
1.223458e+02
4.544029e+01
1.226859e+02
4.578035e+01
4.749674e+01
9.939112e+00
4.766340e+01
1.010577e+01
1.228044e+02
4.565831e+01
1.232215e+02
4.607544e+01
4.773979e+01
1.005908e+01
4.794473e+01
1.026402e+01
1.233645e+02
4.592857e+01
1.238598e+02
4.642388e+01
4.803654e+01
1.020746e+01
4.828028e+01
1.045120e+01
1.240276e+02
4.625181e+01
1.246023e+02
4.682659e+01
4.838779e+01
1.038469e+01
4.867099e+01
1.066788e+01
1.247953e+02
4.662891e+01
1.254510e+02
4.728466e+01
4.879447e+01
1.059125e+01
4.911790e+01
1.091468e+01
1.256695e+02
4.706090e+01
1.264079e+02
4.779933e+01
4.925767e+01
1.082775e+01
4.962225e+01
1.119233e+01
1.266525e+02
4.754896e+01
1.274755e+02
4.837200e+01
4.977867e+01
1.109490e+01
5.018544e+01
1.150166e+01
1.277467e+02
4.809445e+01
1.286565e+02
4.900426e+01
5.035891e+01
1.139348e+01
5.080906e+01
1.184362e+01
1.289549e+02
4.869889e+01
1.299539e+02
4.969788e+01
5.100001e+01
1.172441e+01
5.149487e+01
1.221928e+01
1.302801e+02
4.936401e+01
1.313709e+02
5.045483e+01
5.170378e+01
1.208874e+01
5.224487e+01
1.262983e+01
1.317256e+02
5.009171e+01
1.329112e+02
5.127728e+01
5.247226e+01
1.248763e+01
5.306125e+01
1.307662e+01
1.332952e+02
5.088413e+01
1.345786e+02
5.216762e+01
5.330769e+01
1.292239e+01
5.394648e+01
1.356118e+01
1.349926e+02
5.174363e+01
1.363775e+02
5.312850e+01
5.421257e+01
1.339453e+01
5.490326e+01
1.408521e+01
1.368223e+02
5.267282e+01
1.383123e+02
5.416280e+01
5.518965e+01
1.390570e+01
5.593458e+01
1.465063e+01
1.387886e+02
5.367459e+01
1.403878e+02
5.527371e+01
5.624197e+01
1.445782e+01
5.704379e+01
1.525963e+01
1.408964e+02
5.475212e+01
1.426090e+02
5.646469e+01
5.737289e+01
1.505301e+01
5.823454e+01
1.591467e+01
1.431506e+02
5.590895e+01
1.449812e+02
5.773955e+01
5.858610e+01
1.569373e+01
5.951094e+01
1.661857e+01
1.455564e+02
5.714896e+01
1.475099e+02
5.910245e+01
5.988572e+01
1.638277e+01
6.087752e+01
1.737457e+01
1.481190e+02
5.847649e+01
1.502004e+02
6.055794e+01
6.127627e+01
1.712336e+01
6.233934e+01
1.818643e+01
1.508435e+02
5.989635e+01
1.530582e+02
6.211103e+01
6.276281e+01
1.791924e+01
6.390209e+01
1.905852e+01
1.537349e+02
6.141389e+01
1.560882e+02
6.376717e+01
6.435094e+01
1.877478e+01
6.557217e+01
1.999600e+01
1.567977e+02
6.303514e+01
1.592949e+02
6.553241e+01
6.604697e+01
1.969516e+01
6.735681e+01
2.100500e+01
1.600354e+02
6.476688e+01
1.626819e+02
6.741337e+01
6.785797e+01
2.068655e+01
6.926430e+01
2.209288e+01
1.634504e+02
6.661683e+01
1.662510e+02
6.941737e+01
6.979196e+01
2.175639e+01
7.130416e+01
2.326859e+01
1.670432e+02
6.859380e+01
1.700019e+02
7.155253e+01
7.185809e+01
2.291374e+01
7.348746e+01
2.454312e+01
1.708112e+02
7.070799e+01
1.739311e+02
7.382788e+01
7.406686e+01
2.416979e+01
7.582717e+01
2.593010e+01
1.747480e+02
7.297126e+01
1.780302e+02
7.625348e+01
7.643045e+01
2.553843e+01
7.833870e+01
2.744667e+01
1.788413e+02
7.539760e+01
1.822842e+02
7.884058e+01
7.896310e+01
2.703719e+01
8.104049e+01
2.911459e+01
1.830710e+02
7.800361e+01
1.866691e+02
8.160179e+01
8.168154e+01
2.868846e+01
8.395491e+01
3.096183e+01
1.874063e+02
8.080912e+01
1.911483e+02
8.455116e+01
8.460559e+01
3.052115e+01
8.710925e+01
3.302481e+01
1.918019e+02
8.383793e+01
1.956682e+02
8.770420e+01
8.775864e+01
3.257320e+01
9.053709e+01
3.535164e+01
1.961934e+02
8.711852e+01
2.001526e+02
9.107771e+01
9.116800e+01
3.489534e+01
9.427963e+01
3.800697e+01
2.004909e+02
9.068473e+01
2.044956e+02
9.468948e+01
9.486426e+01
3.755713e+01
9.838688e+01
4.107975e+01
2.045717e+02
9.457660e+01
2.085537e+02
9.855857e+01
9.887787e+01
4.065737e+01
1.029174e+02
4.469688e+01
2.082699e+02
9.884352e+01
2.121370e+02
1.027106e+02
1.032277e+02
4.434463e+01
1.079341e+02
4.905108e+01
2.113565e+02
1.035589e+02
2.150037e+02
1.072062e+02
1.078867e+02
4.886382e+01
1.134940e+02
5.447117e+01
2.134882e+02
1.088851e+02
2.168737e+02
1.122705e+02
1.126910e+02
5.468693e+01
1.196411e+02
6.163702e+01
2.140041e+02
1.153732e+02
2.175028e+02
1.188719e+02
1.171138e+02
6.310285e+01
1.263698e+02
7.235885e+01
2.125659e+02
1.244730e+02
2.169631e+02
1.288702e+02
1.216949e+02
7.856935e+01
1.319310e+02
8.880550e+01
2.134214e+02
1.323099e+02
2.174935e+02
1.363820e+02
1.298243e+02
8.866622e+01
1.361410e+02
9.498289e+01
2.163205e+02
1.374682e+02
2.213097e+02
1.424574e+02
1.358624e+02
9.510635e+01
1.417255e+02
1.009695e+02
2.211731e+02
1.425031e+02
2.268214e+02
1.481514e+02
1.419027e+02
1.008166e+02
1.473872e+02
1.063011e+02
2.273138e+02
1.475803e+02
2.334113e+02
1.536778e+02
1.478920e+02
1.059439e+02
1.530305e+02
1.110824e+02
2.342909e+02
1.526996e+02
2.406431e+02
1.590518e+02
1.537561e+02
1.105815e+02
1.585668e+02
1.153923e+02
2.417697e+02
1.578035e+02
2.482102e+02
1.642440e+02
1.594439e+02
1.147928e+02
1.639391e+02
1.192880e+02
2.494895e+02
1.628249e+02
2.558785e+02
1.692139e+02
1.649109e+02
1.186274e+02
1.690973e+02
1.228138e+02
2.572418e+02
1.677002e+02
2.634638e+02
1.739223e+02
1.701177e+02
1.221230e+02
1.739987e+02
1.260040e+02
2.648579e+02
1.723741e+02
2.708185e+02
1.783348e+02
1.750304e+02
1.253080e+02
1.786070e+02
1.288846e+02
2.722010e+02
1.768002e+02
2.778234e+02
1.824226e+02
1.796203e+02
1.282034e+02
1.828920e+02
1.314751e+02
2.791602e+02
1.809402e+02
2.843824e+02
1.861624e+02
1.838635e+02
1.308244e+02
1.868291e+02
1.337900e+02
2.856457e+02
1.847632e+02
2.904180e+02
1.895355e+02
1.877403e+02
1.331817e+02
1.903983e+02
1.358397e+02
2.915855e+02
1.882442e+02
2.958684e+02
1.925271e+02
1.912348e+02
1.352830e+02
1.935839e+02
1.376321e+02
2.969222e+02
1.913633e+02
3.006847e+02
1.951257e+02
1.943346e+02
1.371339e+02
1.963731e+02
1.391725e+02
3.016103e+02
1.941047e+02
3.048282e+02
1.973225e+02
1.970294e+02
1.387381e+02
1.987563e+02
1.404650e+02
3.056146e+02
1.964561e+02
3.082693e+02
1.991109e+02
1.993116e+02
1.400983e+02
2.007258e+02
1.415125e+02
3.089078e+02
1.984082e+02
3.109855e+02
2.004859e+02
2.011752e+02
1.412162e+02
2.022760e+02
1.423170e+02
3.114696e+02
1.999535e+02
3.129603e+02
2.014443e+02
2.026159e+02
1.420932e+02
2.034026e+02
1.428798e+02
3.132855e+02
2.010869e+02
3.141825e+02
2.019840e+02
2.036305e+02
1.427299e+02
2.041026e+02
1.432021e+02
3.143458e+02
2.018046e+02
3.146452e+02
2.021040e+02
2.042170e+02
1.431269e+02
2.043744e+02
1.432843e+02
</DataArray>
<DataArray type="Float32" Name="V2" format="ascii">
4.533606e-01
4.816854e-01
4.541259e-01
4.824362e-01
4.816854e-01
5.150000e-01
4.824362e-01
5.157378e-01
4.541259e-01
4.824362e-01
4.564117e-01
4.846881e-01
4.824362e-01
5.157378e-01
4.846881e-01
5.179501e-01
4.564117e-01
4.846881e-01
4.602177e-01
4.884377e-01
4.846881e-01
5.179501e-01
4.884377e-01
5.216338e-01
4.602177e-01
4.884377e-01
4.655383e-01
4.936794e-01
4.884377e-01
5.216338e-01
4.936794e-01
5.267833e-01
4.655383e-01
4.936794e-01
4.723657e-01
5.004056e-01
4.936794e-01
5.267833e-01
5.004056e-01
5.333913e-01
4.723657e-01
5.004056e-01
4.806901e-01
5.086066e-01
5.004056e-01
5.333913e-01
5.086066e-01
5.414481e-01
4.806901e-01
5.086066e-01
4.904993e-01
5.182703e-01
5.086066e-01
5.414481e-01
5.182703e-01
5.509419e-01
4.904993e-01
5.182703e-01
5.017789e-01
5.293827e-01
5.182703e-01
5.509419e-01
5.293827e-01
5.618590e-01
5.017789e-01
5.293827e-01
5.145125e-01
5.419275e-01
5.293827e-01
5.618590e-01
5.419275e-01
5.741833e-01
5.145125e-01
5.419275e-01
5.286813e-01
5.558864e-01
5.419275e-01
5.741833e-01
5.558864e-01
5.878968e-01
5.286813e-01
5.558864e-01
5.442646e-01
5.712388e-01
5.558864e-01
5.878968e-01
5.712388e-01
6.029795e-01
5.442646e-01
5.712388e-01
5.612394e-01
5.879622e-01
5.712388e-01
6.029795e-01
5.879622e-01
6.194090e-01
5.612394e-01
5.879622e-01
5.795808e-01
6.060320e-01
5.879622e-01
6.194090e-01
6.060320e-01
6.371613e-01
5.795808e-01
6.060320e-01
5.992616e-01
6.254216e-01
6.060320e-01
6.371613e-01
6.254216e-01
6.562103e-01
5.992616e-01
6.254216e-01
6.202527e-01
6.461021e-01
6.254216e-01
6.562103e-01
6.461021e-01
6.765276e-01
6.202527e-01
6.461021e-01
6.425230e-01
6.680431e-01
6.461021e-01
6.765276e-01
6.680431e-01
6.980832e-01
6.425230e-01
6.680431e-01
6.660391e-01
6.912119e-01
6.680431e-01
6.980832e-01
6.912119e-01
7.208452e-01
6.660391e-01
6.912119e-01
6.907661e-01
7.155738e-01
6.912119e-01
7.208452e-01
7.155738e-01
7.447795e-01
6.907661e-01
7.155738e-01
7.166667e-01
7.410925e-01
7.155738e-01
7.447795e-01
7.410925e-01
7.698505e-01
7.166667e-01
7.410925e-01
7.437020e-01
7.677298e-01
7.410925e-01
7.698505e-01
7.677298e-01
7.960207e-01
7.437020e-01
7.677298e-01
7.718310e-01
7.954454e-01
7.677298e-01
7.960207e-01
7.954454e-01
8.232508e-01
7.718310e-01
7.954454e-01
8.010109e-01
8.241975e-01
7.954454e-01
8.232508e-01
8.241975e-01
8.514998e-01
8.010109e-01
8.241975e-01
8.311972e-01
8.539425e-01
8.241975e-01
8.514998e-01
8.539425e-01
8.807252e-01
8.311972e-01
8.539425e-01
8.623433e-01
8.846353e-01
8.539425e-01
8.807252e-01
8.846353e-01
9.108828e-01
8.623433e-01
8.846353e-01
8.944009e-01
9.162288e-01
8.846353e-01
9.108828e-01
9.162288e-01
9.419272e-01
8.944009e-01
9.162288e-01
9.273201e-01
9.486747e-01
9.162288e-01
9.419272e-01
9.486747e-01
9.738115e-01
9.273201e-01
9.486747e-01
9.610489e-01
9.819232e-01
9.486747e-01
9.738115e-01
9.819232e-01
1.006488e+00
9.610489e-01
9.819232e-01
9.955336e-01
1.015923e+00
9.819232e-01
1.006488e+00
1.015923e+00
1.039906e+00
9.955336e-01
1.015923e+00
1.030718e+00
1.050621e+00
1.015923e+00
1.039906e+00
1.050621e+00
1.074018e+00
1.030718e+00
1.050621e+00
1.066546e+00
1.085964e+00
1.050621e+00
1.074018e+00
1.085964e+00
1.108771e+00
1.066546e+00
1.085964e+00
1.102956e+00
1.121897e+00
1.085964e+00
1.108771e+00
1.121897e+00
1.144116e+00
1.102956e+00
1.121897e+00
1.139888e+00
1.158364e+00
1.121897e+00
1.144116e+00
1.158364e+00
1.180002e+00
1.139888e+00
1.158364e+00
1.177275e+00
1.195308e+00
1.158364e+00
1.180002e+00
1.195308e+00
1.216378e+00
1.177275e+00
1.195308e+00
1.215052e+00
1.232671e+00
1.195308e+00
1.216378e+00
1.232671e+00
1.253196e+00
1.215052e+00
1.232671e+00
1.253146e+00
1.270396e+00
1.232671e+00
1.253196e+00
1.270396e+00
1.290410e+00
1.253146e+00
1.270396e+00
1.291482e+00
1.308424e+00
1.270396e+00
1.290410e+00
1.308424e+00
1.327976e+00
1.291482e+00
1.308424e+00
1.329979e+00
1.346694e+00
1.308424e+00
1.327976e+00
1.346694e+00
1.365856e+00
1.329979e+00
1.346694e+00
1.368550e+00
1.385145e+00
1.346694e+00
1.365856e+00
1.385145e+00
1.404021e+00
1.368550e+00
1.385145e+00
1.407094e+00
1.423710e+00
1.385145e+00
1.404021e+00
1.423710e+00
1.442451e+00
1.407094e+00
1.423710e+00
1.445490e+00
1.462307e+00
1.423710e+00
1.442451e+00
1.462307e+00
1.481140e+00
1.445490e+00
1.462307e+00
1.483566e+00
1.500801e+00
1.462307e+00
1.481140e+00
1.500801e+00
1.520081e+00
1.483566e+00
1.500801e+00
1.521045e+00
1.538889e+00
1.500801e+00
1.520081e+00
1.538889e+00
1.559092e+00
1.521045e+00
1.538889e+00
1.557397e+00
1.575648e+00
1.538889e+00
1.559092e+00
1.575648e+00
1.596106e+00
1.557397e+00
1.575648e+00
1.591472e+00
1.609960e+00
1.575648e+00
1.596106e+00
1.609960e+00
1.630679e+00
1.591472e+00
1.609960e+00
1.623210e+00
1.642175e+00
1.609960e+00
1.630679e+00
1.642175e+00
1.663367e+00
1.623210e+00
1.642175e+00
1.652702e+00
1.672249e+00
1.642175e+00
1.663367e+00
1.672249e+00
1.694006e+00
1.652702e+00
1.672249e+00
1.680035e+00
1.700186e+00
1.672249e+00
1.694006e+00
1.700186e+00
1.722545e+00
1.680035e+00
1.700186e+00
1.705286e+00
1.726020e+00
1.700186e+00
1.722545e+00
1.726020e+00
1.748974e+00
1.705286e+00
1.726020e+00
1.728529e+00
1.749801e+00
1.726020e+00
1.748974e+00
1.749801e+00
1.773319e+00
1.728529e+00
1.749801e+00
1.749836e+00
1.771591e+00
1.749801e+00
1.773319e+00
1.771591e+00
1.795625e+00
1.749836e+00
1.771591e+00
1.769278e+00
1.791455e+00
1.771591e+00
1.795625e+00
1.791455e+00
1.815952e+00
1.769278e+00
1.791455e+00
1.786918e+00
1.809459e+00
1.791455e+00
1.815952e+00
1.809459e+00
1.834363e+00
1.786918e+00
1.809459e+00
1.802818e+00
1.825669e+00
1.809459e+00
1.834363e+00
1.825669e+00
1.850925e+00
1.802818e+00
1.825669e+00
1.817033e+00
1.840145e+00
1.825669e+00
1.850925e+00
1.840145e+00
1.865702e+00
1.817033e+00
1.840145e+00
1.829616e+00
1.852944e+00
1.840145e+00
1.865702e+00
1.852944e+00
1.878754e+00
1.829616e+00
1.852944e+00
1.840612e+00
1.864117e+00
1.852944e+00
1.878754e+00
1.864117e+00
1.890138e+00
1.840612e+00
1.864117e+00
1.850061e+00
1.873709e+00
1.864117e+00
1.890138e+00
1.873709e+00
1.899904e+00
1.850061e+00
1.873709e+00
1.857997e+00
1.881760e+00
1.873709e+00
1.899904e+00
1.881760e+00
1.908093e+00
1.857997e+00
1.881760e+00
1.864451e+00
1.888302e+00
1.881760e+00
1.908093e+00
1.888302e+00
1.914744e+00
1.864451e+00
1.888302e+00
1.869446e+00
1.893363e+00
1.888302e+00
1.914744e+00
1.893363e+00
1.919886e+00
1.869446e+00
1.893363e+00
1.873000e+00
1.896962e+00
1.893363e+00
1.919886e+00
1.896962e+00
1.923543e+00
1.873000e+00
1.896962e+00
1.875128e+00
1.899116e+00
1.896962e+00
1.923543e+00
1.899116e+00
1.925730e+00
1.875128e+00
1.899116e+00
1.875836e+00
1.899833e+00
1.899116e+00
1.925730e+00
1.899833e+00
1.926458e+00
</DataArray>
<DataArray type="Float32" Name="V3" format="ascii">
0.000000e+00
0.000000e+00
2.471101e-02
2.399814e-02
0.000000e+00
0.000000e+00
2.399814e-02
2.316395e-02
2.471101e-02
2.399814e-02
4.936015e-02
4.793512e-02
2.399814e-02
2.316395e-02
4.793512e-02
4.626760e-02
4.936015e-02
4.793512e-02
7.388520e-02
7.174969e-02
4.793512e-02
4.626760e-02
7.174969e-02
6.925075e-02
7.388520e-02
7.174969e-02
9.822435e-02
9.538080e-02
7.174969e-02
6.925075e-02
9.538080e-02
9.205330e-02
9.822435e-02
9.538080e-02
1.223160e-01
1.187676e-01
9.538080e-02
9.205330e-02
1.187676e-01
1.146154e-01
1.223160e-01
1.187676e-01
1.460987e-01
1.418497e-01
1.187676e-01
1.146154e-01
1.418497e-01
1.368773e-01
1.460987e-01
1.418497e-01
1.695116e-01
1.645667e-01
1.418497e-01
1.368773e-01
1.645667e-01
1.587800e-01
1.695116e-01
1.645667e-01
1.924941e-01
1.868590e-01
1.645667e-01
1.587800e-01
1.868590e-01
1.802644e-01
1.924941e-01
1.868590e-01
2.149861e-01
2.086673e-01
1.868590e-01
1.802644e-01
2.086673e-01
2.012723e-01
2.149861e-01
2.086673e-01
2.369282e-01
2.299329e-01
2.086673e-01
2.012723e-01
2.299329e-01
2.217459e-01
2.369282e-01
2.299329e-01
2.582615e-01
2.505976e-01
2.299329e-01
2.217459e-01
2.505976e-01
2.416279e-01
2.582615e-01
2.505976e-01
2.789278e-01
2.706041e-01
2.505976e-01
2.416279e-01
2.706041e-01
2.608618e-01
2.789278e-01
2.706041e-01
2.988699e-01
2.898958e-01
2.706041e-01
2.608618e-01
2.898958e-01
2.793920e-01
2.988699e-01
2.898958e-01
3.180311e-01
3.084169e-01
2.898958e-01
2.793920e-01
3.084169e-01
2.971635e-01
3.180311e-01
3.084169e-01
3.363559e-01
3.261126e-01
3.084169e-01
2.971635e-01
3.261126e-01
3.141222e-01
3.363559e-01
3.261126e-01
3.537897e-01
3.429289e-01
3.261126e-01
3.141222e-01
3.429289e-01
3.302151e-01
3.537897e-01
3.429289e-01
3.702788e-01
3.588129e-01
3.429289e-01
3.302151e-01
3.588129e-01
3.453902e-01
3.702788e-01
3.588129e-01
3.857707e-01
3.737129e-01
3.588129e-01
3.453902e-01
3.737129e-01
3.595966e-01
3.857707e-01
3.737129e-01
4.002142e-01
3.875782e-01
3.737129e-01
3.595966e-01
3.875782e-01
3.727845e-01
4.002142e-01
3.875782e-01
4.135591e-01
4.003596e-01
3.875782e-01
3.727845e-01
4.003596e-01
3.849053e-01
4.135591e-01
4.003596e-01
4.257566e-01
4.120088e-01
4.003596e-01
3.849053e-01
4.120088e-01
3.959121e-01
4.257566e-01
4.120088e-01
4.367591e-01
4.224792e-01
4.120088e-01
3.959121e-01
4.224792e-01
4.057588e-01
4.367591e-01
4.224792e-01
4.465205e-01
4.317254e-01
4.224792e-01
4.057588e-01
4.317254e-01
4.144014e-01
4.465205e-01
4.317254e-01
4.549961e-01
4.397036e-01
4.317254e-01
4.144014e-01
4.397036e-01
4.217969e-01
4.549961e-01
4.397036e-01
4.621427e-01
4.463714e-01
4.397036e-01
4.217969e-01
4.463714e-01
4.279044e-01
4.621427e-01
4.463714e-01
4.679183e-01
4.516882e-01
4.463714e-01
4.279044e-01
4.516882e-01
4.326844e-01
4.679183e-01
4.516882e-01
4.722827e-01
4.556148e-01
4.516882e-01
4.326844e-01
4.556148e-01
4.360995e-01
4.722827e-01
4.556148e-01
4.751971e-01
4.581138e-01
4.556148e-01
4.360995e-01
4.581138e-01
4.381142e-01
4.751971e-01
4.581138e-01
4.766243e-01
4.591495e-01
4.581138e-01
4.381142e-01
4.591495e-01
4.386949e-01
4.766243e-01
4.591495e-01
4.765285e-01
4.586880e-01
4.591495e-01
4.386949e-01
4.586880e-01
4.378106e-01
4.765285e-01
4.586880e-01
4.748753e-01
4.566973e-01
4.586880e-01
4.378106e-01
4.566973e-01
4.354322e-01
4.748753e-01
4.566973e-01
4.716317e-01
4.531470e-01
4.566973e-01
4.354322e-01
4.531470e-01
4.315337e-01
4.716317e-01
4.531470e-01
4.667662e-01
4.480087e-01
4.531470e-01
4.315337e-01
4.480087e-01
4.260915e-01
4.667662e-01
4.480087e-01
4.602482e-01
4.412557e-01
4.480087e-01
4.260915e-01
4.412557e-01
4.190851e-01
4.602482e-01
4.412557e-01
4.520486e-01
4.328634e-01
4.412557e-01
4.190851e-01
4.328634e-01
4.104976e-01
4.520486e-01
4.328634e-01
4.421389e-01
4.228084e-01
4.328634e-01
4.104976e-01
4.228084e-01
4.003156e-01
4.421389e-01
4.228084e-01
4.304917e-01
4.110693e-01
4.228084e-01
4.003156e-01
4.110693e-01
3.885301e-01
4.304917e-01
4.110693e-01
4.170809e-01
3.976261e-01
4.110693e-01
3.885301e-01
3.976261e-01
3.751373e-01
4.170809e-01
3.976261e-01
4.018826e-01
3.824611e-01
3.976261e-01
3.751373e-01
3.824611e-01
3.601396e-01
4.018826e-01
3.824611e-01
3.848808e-01
3.655632e-01
3.824611e-01
3.601396e-01
3.655632e-01
3.435452e-01
3.848808e-01
3.655632e-01
3.660894e-01
3.469472e-01
3.655632e-01
3.435452e-01
3.469472e-01
3.253563e-01
3.660894e-01
3.469472e-01
3.456269e-01
3.267060e-01
3.469472e-01
3.253563e-01
3.267060e-01
3.054714e-01
3.456269e-01
3.267060e-01
3.242863e-01
3.056731e-01
3.267060e-01
3.054714e-01
3.056731e-01
2.844715e-01
3.242863e-01
3.056731e-01
3.038202e-01
2.858623e-01
3.056731e-01
2.844715e-01
2.858623e-01
2.656869e-01
3.038202e-01
2.858623e-01
2.843770e-01
2.672179e-01
2.858623e-01
2.656869e-01
2.672179e-01
2.481463e-01
2.843770e-01
2.672179e-01
2.658309e-01
2.495857e-01
2.672179e-01
2.481463e-01
2.495857e-01
2.316551e-01
2.658309e-01
2.495857e-01
2.480306e-01
2.327792e-01
2.495857e-01
2.316551e-01
2.327792e-01
2.160184e-01
2.480306e-01
2.327792e-01
2.308447e-01
2.166366e-01
2.327792e-01
2.160184e-01
2.166366e-01
2.010641e-01
2.308447e-01
2.166366e-01
2.141590e-01
2.010198e-01
2.166366e-01
2.010641e-01
2.010198e-01
1.866416e-01
2.141590e-01
2.010198e-01
1.978766e-01
1.858128e-01
2.010198e-01
1.866416e-01
1.858128e-01
1.726235e-01
1.978766e-01
1.858128e-01
1.819163e-01
1.709206e-01
1.858128e-01
1.726235e-01
1.709206e-01
1.589043e-01
1.819163e-01
1.709206e-01
1.662107e-01
1.562656e-01
1.709206e-01
1.589043e-01
1.562656e-01
1.453991e-01
1.662107e-01
1.562656e-01
1.507041e-01
1.417857e-01
1.562656e-01
1.453991e-01
1.417857e-01
1.320406e-01
1.507041e-01
1.417857e-01
1.353513e-01
1.274321e-01
1.417857e-01
1.320406e-01
1.274321e-01
1.187772e-01
1.353513e-01
1.274321e-01
1.201158e-01
1.131665e-01
1.274321e-01
1.187772e-01
1.131665e-01
1.055699e-01
1.201158e-01
1.131665e-01
1.049682e-01
9.896013e-02
1.131665e-01
1.055699e-01
9.896013e-02
9.239057e-02
1.049682e-01
9.896013e-02
8.988577e-02
8.479154e-02
9.896013e-02
9.239057e-02
8.479154e-02
7.921969e-02
8.988577e-02
8.479154e-02
7.485043e-02
7.064538e-02
8.479154e-02
7.921969e-02
7.064538e-02
6.604484e-02
7.485043e-02
7.064538e-02
5.984848e-02
5.651119e-02
7.064538e-02
6.604484e-02
5.651119e-02
5.285915e-02
5.984848e-02
5.651119e-02
4.486949e-02
4.238232e-02
5.651119e-02
5.285915e-02
4.238232e-02
3.966006e-02
4.486949e-02
4.238232e-02
2.990556e-02
2.825505e-02
4.238232e-02
3.966006e-02
2.825505e-02
2.644826e-02
2.990556e-02
2.825505e-02
1.495067e-02
1.412770e-02
2.825505e-02
2.644826e-02
1.412770e-02
1.322674e-02
1.495067e-02
1.412770e-02
0.000000e+00
0.000000e+00
1.412770e-02
1.322674e-02
0.000000e+00
0.000000e+00
</DataArray>
<DataArray type="Float32" Name="V4" format="ascii">
8.500000e-01
9.250000e-01
8.500000e-01
9.250000e-01
9.250000e-01
1.000000e+00