<?xml version="1.0"?>
<VTKFile type="UnstructuredGrid" version="0.1" byte_order="LittleEndian" compressor="vtkZLibDataCompressor">
<UnstructuredGrid>
<Piece NumberOfPoints="504" NumberOfCells="126">
<Points>
<DataArray type="Float32" NumberOfComponents="3" format="ascii">
0.000000e+00 6.343018e-01 0.000000e+00
0.000000e+00 6.782442e-01 0.000000e+00
2.893259e-02 6.343124e-01 0.000000e+00
2.890514e-02 6.782494e-01 0.000000e+00
0.000000e+00 6.782442e-01 0.000000e+00
0.000000e+00 7.300000e-01 0.000000e+00
2.890514e-02 6.782494e-01 0.000000e+00
2.889129e-02 7.300000e-01 0.000000e+00
2.893259e-02 6.343124e-01 0.000000e+00
2.890514e-02 6.782494e-01 0.000000e+00
5.786492e-02 6.343404e-01 0.000000e+00
5.781001e-02 6.782648e-01 0.000000e+00
2.890514e-02 6.782494e-01 0.000000e+00
2.889129e-02 7.300000e-01 0.000000e+00
5.781001e-02 6.782648e-01 0.000000e+00
5.778236e-02 7.300000e-01 0.000000e+00
5.786492e-02 6.343404e-01 0.000000e+00
5.781001e-02 6.782648e-01 0.000000e+00
8.679645e-02 6.343871e-01 0.000000e+00
8.671435e-02 6.782903e-01 0.000000e+00
5.781001e-02 6.782648e-01 0.000000e+00
5.778236e-02 7.300000e-01 0.000000e+00
8.671435e-02 6.782903e-01 0.000000e+00
8.667307e-02 7.300000e-01 0.000000e+00
8.679645e-02 6.343871e-01 0.000000e+00
8.671435e-02 6.782903e-01 0.000000e+00
1.157268e-01 6.344524e-01 0.000000e+00
1.156179e-01 6.783261e-01 0.000000e+00
8.671435e-02 6.782903e-01 0.000000e+00
8.667307e-02 7.300000e-01 0.000000e+00
1.156179e-01 6.783261e-01 0.000000e+00
1.155632e-01 7.300000e-01 0.000000e+00
1.157268e-01 6.344524e-01 0.000000e+00
1.156179e-01 6.783261e-01 0.000000e+00
1.446556e-01 6.345364e-01 0.000000e+00
1.445203e-01 6.783722e-01 0.000000e+00
1.156179e-01 6.783261e-01 0.000000e+00
1.155632e-01 7.300000e-01 0.000000e+00
1.445203e-01 6.783722e-01 0.000000e+00
1.444527e-01 7.300000e-01 0.000000e+00
1.446556e-01 6.345364e-01 0.000000e+00
1.445203e-01 6.783722e-01 0.000000e+00
1.735823e-01 6.346389e-01 0.000000e+00
1.734215e-01 6.784286e-01 0.000000e+00
1.445203e-01 6.783722e-01 0.000000e+00
1.444527e-01 7.300000e-01 0.000000e+00
1.734215e-01 6.784286e-01 0.000000e+00
1.733414e-01 7.300000e-01 0.000000e+00
1.735823e-01 6.346389e-01 0.000000e+00
1.734215e-01 6.784286e-01 0.000000e+00
2.025064e-01 6.347602e-01 0.000000e+00
2.023210e-01 6.784954e-01 0.000000e+00
1.734215e-01 6.784286e-01 0.000000e+00
1.733414e-01 7.300000e-01 0.000000e+00
2.023210e-01 6.784954e-01 0.000000e+00
2.022293e-01 7.300000e-01 0.000000e+00
2.025064e-01 6.347602e-01 0.000000e+00
2.023210e-01 6.784954e-01 0.000000e+00
2.314273e-01 6.349000e-01 0.000000e+00
2.312187e-01 6.785728e-01 0.000000e+00
2.023210e-01 6.784954e-01 0.000000e+00
2.022293e-01 7.300000e-01 0.000000e+00
2.312187e-01 6.785728e-01 0.000000e+00
2.311164e-01 7.300000e-01 0.000000e+00
2.314273e-01 6.349000e-01 0.000000e+00
2.312187e-01 6.785728e-01 0.000000e+00
2.603444e-01 6.350586e-01 0.000000e+00
2.601142e-01 6.786609e-01 0.000000e+00
2.312187e-01 6.785728e-01 0.000000e+00
2.311164e-01 7.300000e-01 0.000000e+00
2.601142e-01 6.786609e-01 0.000000e+00
2.600028e-01 7.300000e-01 0.000000e+00
2.603444e-01 6.350586e-01 0.000000e+00
2.601142e-01 6.786609e-01 0.000000e+00
2.892568e-01 6.352359e-01 0.000000e+00
2.890075e-01 6.787599e-01 0.000000e+00
2.601142e-01 6.786609e-01 0.000000e+00
2.600028e-01 7.300000e-01 0.000000e+00
2.890075e-01 6.787599e-01 0.000000e+00
2.888890e-01 7.300000e-01 0.000000e+00
2.892568e-01 6.352359e-01 0.000000e+00
2.890075e-01 6.787599e-01 0.000000e+00
3.181636e-01 6.354321e-01 0.000000e+00
3.178984e-01 6.788702e-01 0.000000e+00
2.890075e-01 6.787599e-01 0.000000e+00
2.888890e-01 7.300000e-01 0.000000e+00
3.178984e-01 6.788702e-01 0.000000e+00
3.177754e-01 7.300000e-01 0.000000e+00
3.181636e-01 6.354321e-01 0.000000e+00
3.178984e-01 6.788702e-01 0.000000e+00
3.470635e-01 6.356474e-01 0.000000e+00
3.467867e-01 6.789923e-01 0.000000e+00
3.178984e-01 6.788702e-01 0.000000e+00
3.177754e-01 7.300000e-01 0.000000e+00
3.467867e-01 6.789923e-01 0.000000e+00
3.466629e-01 7.300000e-01 0.000000e+00
3.470635e-01 6.356474e-01 0.000000e+00
3.467867e-01 6.789923e-01 0.000000e+00
3.759551e-01 6.358822e-01 0.000000e+00
3.756724e-01 6.791268e-01 0.000000e+00
3.467867e-01 6.789923e-01 0.000000e+00
3.466629e-01 7.300000e-01 0.000000e+00
3.756724e-01 6.791268e-01 0.000000e+00
3.755528e-01 7.300000e-01 0.000000e+00
3.759551e-01 6.358822e-01 0.000000e+00
3.756724e-01 6.791268e-01 0.000000e+00
4.048364e-01 6.361370e-01 0.000000e+00
4.045557e-01 6.792747e-01 0.000000e+00
3.756724e-01 6.791268e-01 0.000000e+00
3.755528e-01 7.300000e-01 0.000000e+00
4.045557e-01 6.792747e-01 0.000000e+00
4.044469e-01 7.300000e-01 0.000000e+00
4.048364e-01 6.361370e-01 0.000000e+00
4.045557e-01 6.792747e-01 0.000000e+00
4.337052e-01 6.364122e-01 0.000000e+00
4.334368e-01 6.794370e-01 0.000000e+00
4.045557e-01 6.792747e-01 0.000000e+00
4.044469e-01 7.300000e-01 0.000000e+00
4.334368e-01 6.794370e-01 0.000000e+00
4.333480e-01 7.300000e-01 0.000000e+00
4.337052e-01 6.364122e-01 0.000000e+00
4.334368e-01 6.794370e-01 0.000000e+00
4.625582e-01 6.367088e-01 0.000000e+00
4.623163e-01 6.796154e-01 0.000000e+00
4.334368e-01 6.794370e-01 0.000000e+00
4.333480e-01 7.300000e-01 0.000000e+00
4.623163e-01 6.796154e-01 0.000000e+00
4.622596e-01 7.300000e-01 0.000000e+00
4.625582e-01 6.367088e-01 0.000000e+00
4.623163e-01 6.796154e-01 0.000000e+00
4.913913e-01 6.370276e-01 0.000000e+00
4.911950e-01 6.798118e-01 0.000000e+00
4.623163e-01 6.796154e-01 0.000000e+00
4.622596e-01 7.300000e-01 0.000000e+00
4.911950e-01 6.798118e-01 0.000000e+00
4.911868e-01 7.300000e-01 0.000000e+00
4.913913e-01 6.370276e-01 0.000000e+00
4.911950e-01 6.798118e-01 0.000000e+00
5.201994e-01 6.373699e-01 0.000000e+00
5.200740e-01 6.800287e-01 0.000000e+00
4.911950e-01 6.798118e-01 0.000000e+00
4.911868e-01 7.300000e-01 0.000000e+00
5.200740e-01 6.800287e-01 0.000000e+00
5.201362e-01 7.300000e-01 0.000000e+00
5.201994e-01 6.373699e-01 0.000000e+00
5.200740e-01 6.800287e-01 0.000000e+00
5.489753e-01 6.377370e-01 0.000000e+00
5.489551e-01 6.802691e-01 0.000000e+00
5.200740e-01 6.800287e-01 0.000000e+00
5.201362e-01 7.300000e-01 0.000000e+00
5.489551e-01 6.802691e-01 0.000000e+00
5.491170e-01 7.300000e-01 0.000000e+00
5.489753e-01 6.377370e-01 0.000000e+00
5.489551e-01 6.802691e-01 0.000000e+00
5.777097e-01 6.381299e-01 0.000000e+00
5.778401e-01 6.805366e-01 0.000000e+00
5.489551e-01 6.802691e-01 0.000000e+00
5.491170e-01 7.300000e-01 0.000000e+00
5.778401e-01 6.805366e-01 0.000000e+00
5.781407e-01 7.300000e-01 0.000000e+00
5.777097e-01 6.381299e-01 0.000000e+00
5.778401e-01 6.805366e-01 0.000000e+00
6.063904e-01 6.385492e-01 0.000000e+00
6.067317e-01 6.808350e-01 0.000000e+00
5.778401e-01 6.805366e-01 0.000000e+00
5.781407e-01 7.300000e-01 0.000000e+00
6.067317e-01 6.808350e-01 0.000000e+00
6.072226e-01 7.300000e-01 0.000000e+00
6.063904e-01 6.385492e-01 0.000000e+00
6.067317e-01 6.808350e-01 0.000000e+00
6.350009e-01 6.389944e-01 0.000000e+00
6.356322e-01 6.811684e-01 0.000000e+00
6.067317e-01 6.808350e-01 0.000000e+00
6.072226e-01 7.300000e-01 0.000000e+00
6.356322e-01 6.811684e-01 0.000000e+00
6.363821e-01 7.300000e-01 0.000000e+00
6.350009e-01 6.389944e-01 0.000000e+00
6.356322e-01 6.811684e-01 0.000000e+00
6.635200e-01 6.394618e-01 0.000000e+00
6.645434e-01 6.815393e-01 0.000000e+00
6.356322e-01 6.811684e-01 0.000000e+00
6.363821e-01 7.300000e-01 0.000000e+00
6.645434e-01 6.815393e-01 0.000000e+00
6.656431e-01 7.300000e-01 0.000000e+00
6.635200e-01 6.394618e-01 0.000000e+00
6.645434e-01 6.815393e-01 0.000000e+00
6.919193e-01 6.399428e-01 0.000000e+00
6.934647e-01 6.819474e-01 0.000000e+00
6.645434e-01 6.815393e-01 0.000000e+00
6.656431e-01 7.300000e-01 0.000000e+00
6.934647e-01 6.819474e-01 0.000000e+00
6.950345e-01 7.300000e-01 0.000000e+00
6.919193e-01 6.399428e-01 0.000000e+00
6.934647e-01 6.819474e-01 0.000000e+00
7.201625e-01 6.404184e-01 0.000000e+00
7.223892e-01 6.823845e-01 0.000000e+00
6.934647e-01 6.819474e-01 0.000000e+00
6.950345e-01 7.300000e-01 0.000000e+00
7.223892e-01 6.823845e-01 0.000000e+00
7.245884e-01 7.300000e-01 0.000000e+00
7.201625e-01 6.404184e-01 0.000000e+00
7.223892e-01 6.823845e-01 0.000000e+00
7.482024e-01 6.408503e-01 0.000000e+00
7.512967e-01 6.828249e-01 0.000000e+00
7.223892e-01 6.823845e-01 0.000000e+00
7.245884e-01 7.300000e-01 0.000000e+00
7.512967e-01 6.828249e-01 0.000000e+00
7.543357e-01 7.300000e-01 0.000000e+00
7.482024e-01 6.408503e-01 0.000000e+00
7.512967e-01 6.828249e-01 0.000000e+00
7.759782e-01 6.411642e-01 0.000000e+00
7.801390e-01 6.832059e-01 0.000000e+00
7.512967e-01 6.828249e-01 0.000000e+00
7.543357e-01 7.300000e-01 0.000000e+00
7.801390e-01 6.832059e-01 0.000000e+00
7.842927e-01 7.300000e-01 0.000000e+00
7.759782e-01 6.411642e-01 0.000000e+00
7.801390e-01 6.832059e-01 0.000000e+00
8.034065e-01 6.412069e-01 0.000000e+00
8.088112e-01 6.833713e-01 0.000000e+00
7.801390e-01 6.832059e-01 0.000000e+00
7.842927e-01 7.300000e-01 0.000000e+00
8.088112e-01 6.833713e-01 0.000000e+00
8.144372e-01 7.300000e-01 0.000000e+00
8.034065e-01 6.412069e-01 0.000000e+00
8.088112e-01 6.833713e-01 0.000000e+00
8.304071e-01 6.407355e-01 0.000000e+00
8.371753e-01 6.830510e-01 0.000000e+00
8.088112e-01 6.833713e-01 0.000000e+00
8.144372e-01 7.300000e-01 0.000000e+00
8.371753e-01 6.830510e-01 0.000000e+00
8.445058e-01 7.300000e-01 0.000000e+00
8.304071e-01 6.407355e-01 0.000000e+00
8.371753e-01 6.830510e-01 0.000000e+00
8.569877e-01 6.392393e-01 0.000000e+00
8.652083e-01 6.814949e-01 0.000000e+00
8.371753e-01 6.830510e-01 0.000000e+00
8.445058e-01 7.300000e-01 0.000000e+00
8.652083e-01 6.814949e-01 0.000000e+00
8.739964e-01 7.282774e-01 0.000000e+00
8.569877e-01 6.392393e-01 0.000000e+00
8.652083e-01 6.814949e-01 0.000000e+00
8.830375e-01 6.362636e-01 0.000000e+00
8.928121e-01 6.781408e-01 0.000000e+00
8.652083e-01 6.814949e-01 0.000000e+00
8.739964e-01 7.282774e-01 0.000000e+00
8.928121e-01 6.781408e-01 0.000000e+00
9.034598e-01 7.238968e-01 0.000000e+00
8.830375e-01 6.362636e-01 0.000000e+00
[...]
<PointData>
<DataArray type="Float32" Name="V1" format="ascii">
2.045438e+01
7.046064e+00
2.046323e+01
7.054919e+00
7.456863e+00
8.929763e-01
7.461301e+00
8.974144e-01
2.046779e+01
7.049792e+00
2.049028e+01
7.072281e+00
7.464088e+00
8.958572e-01
7.475358e+00
9.071276e-01
2.050044e+01
7.062315e+00
2.053812e+01
7.099991e+00
7.480957e+00
9.040102e-01
7.500039e+00
9.230924e-01
2.055322e+01
7.084962e+00
2.060616e+01
7.137899e+00
7.508288e+00
9.182309e-01
7.535207e+00
9.451504e-01
2.062623e+01
7.117790e+00
2.069452e+01
7.186071e+00
7.546152e+00
9.385561e-01
7.580972e+00
9.733758e-01
2.071956e+01
7.160896e+00
2.080329e+01
7.244631e+00
7.594654e+00
9.650422e-01
7.637480e+00
1.007868e+00
2.083328e+01
7.214411e+00
2.093259e+01
7.313728e+00
7.653937e+00
9.977762e-01
7.704914e+00
1.048753e+00
2.096748e+01
7.278506e+00
2.108252e+01
7.393542e+00
7.724187e+00
1.036876e+00
7.783500e+00
1.096189e+00
2.112222e+01
7.353393e+00
2.125311e+01
7.484280e+00
7.805627e+00
1.082494e+00
7.873517e+00
1.150384e+00
2.129749e+01
7.439334e+00
2.144434e+01
7.586185e+00
7.898534e+00
1.134835e+00
7.975304e+00
1.211605e+00
2.149316e+01
7.536651e+00
2.165604e+01
7.699537e+00
8.003241e+00
1.194161e+00
8.089275e+00
1.280195e+00
2.170895e+01
7.645739e+00
2.188787e+01
7.824658e+00
8.120149e+00
1.260815e+00
8.215939e+00
1.356605e+00
2.194432e+01
7.767086e+00
2.213915e+01
7.961921e+00
8.249744e+00
1.335249e+00
8.355925e+00
1.441429e+00
2.219837e+01
7.901302e+00
2.240883e+01
8.111764e+00
8.392623e+00
1.418058e+00
8.510018e+00
1.535454e+00
2.246968e+01
8.049160e+00
2.269523e+01
8.274712e+00
8.549516e+00
1.510041e+00
8.679212e+00
1.639738e+00
2.275607e+01
8.211649e+00
2.299583e+01
8.451406e+00
8.721340e+00
1.612272e+00
8.864780e+00
1.755713e+00
2.305437e+01
8.390059e+00
2.330696e+01
8.642652e+00
8.909249e+00
1.726208e+00
9.068368e+00
1.885327e+00
2.335998e+01
8.586089e+00
2.362338e+01
8.849491e+00
9.114715e+00
1.853844e+00
9.292135e+00
2.031264e+00
2.366642e+01
8.802000e+00
2.393772e+01
9.073300e+00
9.339632e+00
1.997941e+00
9.538934e+00
2.197243e+00
2.396469e+01
9.040822e+00
2.423981e+01
9.315939e+00
9.586438e+00
2.162357e+00
9.812555e+00
2.388473e+00
2.424253e+01
9.306608e+00
2.451587e+01
9.579946e+00
9.858266e+00
2.352555e+00
1.011805e+01
2.612340e+00
2.448354e+01
9.604748e+00
2.474759e+01
9.868803e+00
1.015907e+01
2.576415e+00
1.046215e+01
2.879491e+00
2.466634e+01
9.942283e+00
2.491134e+01
1.018729e+01
1.049368e+01
2.845554e+00
1.085375e+01
3.205616e+00
2.476398e+01
1.032817e+01
2.497776e+01
1.054195e+01
1.086756e+01
3.177671e+00
1.130448e+01
3.614592e+00
2.474404e+01
1.077340e+01
2.491262e+01
1.094198e+01
1.128590e+01
3.600836e+00
1.182930e+01
4.144227e+00
2.457045e+01
1.129086e+01
2.468065e+01
1.140106e+01
1.175115e+01
4.161790e+00
1.244684e+01
4.857475e+00
2.420781e+01
1.189679e+01
2.425407e+01
1.194305e+01
1.225701e+01
4.943507e+00
1.317791e+01
5.864405e+00
2.363633e+01
1.261223e+01
2.363352e+01
1.260943e+01
1.277698e+01
6.092928e+00
1.404713e+01
7.363082e+00
2.283495e+01
1.350200e+01
2.285848e+01
1.352553e+01
1.313370e+01
8.019238e+00
1.490224e+01
9.787781e+00
2.194828e+01
1.463538e+01
2.199895e+01
1.468605e+01
1.363501e+01
1.102105e+01
1.510110e+01
1.248714e+01
2.133822e+01
1.540015e+01
2.143302e+01
1.549494e+01
1.475585e+01
1.252987e+01
1.554388e+01
1.331791e+01
2.101957e+01
1.591361e+01
2.121521e+01
1.610925e+01
1.543369e+01
1.336714e+01
1.610080e+01
1.403425e+01
2.098126e+01
1.635045e+01
2.127284e+01
1.664204e+01
1.600804e+01
1.408352e+01
1.659765e+01
1.467313e+01
2.115915e+01
1.676516e+01
2.153333e+01
1.713933e+01
1.655006e+01
1.469963e+01
1.708280e+01
1.523237e+01
2.149330e+01
1.718350e+01
2.192778e+01
1.761798e+01
1.707208e+01
1.523622e+01
1.755706e+01
1.572120e+01
2.193770e+01
1.760617e+01
2.241302e+01
1.808150e+01
1.757773e+01
1.570464e+01
1.802150e+01
1.614841e+01
2.245800e+01
1.802951e+01
2.295846e+01
1.852997e+01
1.806662e+01
1.611557e+01
1.847428e+01
1.652323e+01
2.302867e+01
1.844892e+01
2.354191e+01
1.896217e+01
1.853754e+01
1.647828e+01
1.891323e+01
1.685398e+01
2.363025e+01
1.886035e+01
2.414666e+01
1.937676e+01
1.898921e+01
1.680063e+01
1.933634e+01
1.714776e+01
2.424775e+01
1.926055e+01
2.475986e+01
1.977266e+01
1.942068e+01
1.708905e+01
1.974204e+01
1.741042e+01
2.486948e+01
1.964704e+01
2.537155e+01
2.014912e+01
1.983129e+01
1.734873e+01
2.012922e+01
1.764667e+01
2.548633e+01
2.001804e+01
2.597401e+01
2.050572e+01
2.022072e+01
1.758383e+01
2.049717e+01
1.786028e+01
2.609126e+01
2.037230e+01
2.656125e+01
2.084229e+01
2.058888e+01
1.779765e+01
2.084548e+01
1.805425e+01
2.667882e+01
2.070902e+01
2.712871e+01
2.115890e+01
2.093590e+01
1.799284e+01
2.117404e+01
1.823099e+01
2.724486e+01
2.102770e+01
2.767292e+01
2.145576e+01
2.126202e+01
1.817153e+01
2.148289e+01
1.839240e+01
2.778629e+01
2.132813e+01
2.819131e+01
2.173316e+01
2.156760e+01
1.833540e+01
2.177223e+01
1.854003e+01
2.830083e+01
2.161026e+01
2.868205e+01
2.199149e+01
2.185307e+01
1.848586e+01
2.204234e+01
1.867513e+01
2.878687e+01
2.187421e+01
2.914383e+01
2.223117e+01
2.211888e+01
1.862402e+01
2.229357e+01
1.879871e+01
2.924332e+01
2.212017e+01
2.957580e+01
2.245266e+01
2.236552e+01
1.875083e+01
2.252630e+01
1.891161e+01
2.966948e+01
2.234840e+01
2.997747e+01
2.265639e+01
2.259348e+01
1.886703e+01
2.274095e+01
1.901450e+01
3.006498e+01
2.255922e+01
3.034857e+01
2.284281e+01
2.280324e+01
1.897328e+01
2.293793e+01
1.910797e+01
3.042967e+01
2.275295e+01
3.068906e+01
2.301235e+01
2.299527e+01
1.907011e+01
2.311764e+01
1.919248e+01
3.076357e+01
2.292995e+01
3.099902e+01
2.316541e+01
2.317002e+01
1.915797e+01
2.328049e+01
1.926844e+01
3.106682e+01
2.309056e+01
3.127864e+01
2.330237e+01
2.332791e+01
1.923725e+01
2.342684e+01
1.933618e+01
3.133966e+01
2.323510e+01
3.152814e+01
2.342358e+01
2.346934e+01
1.930827e+01
2.355704e+01
1.939597e+01
3.158235e+01
2.336390e+01
3.174781e+01
2.352936e+01
2.359466e+01
1.937131e+01
2.367142e+01
1.944806e+01
3.179520e+01
2.347724e+01
3.193793e+01
2.361997e+01
2.370420e+01
1.942660e+01
2.377025e+01
1.949265e+01
3.197851e+01
2.357539e+01
3.209878e+01
2.369567e+01
2.379824e+01
1.947434e+01
2.385380e+01
1.952989e+01
3.213255e+01
2.365859e+01
3.223062e+01
2.375666e+01
2.387704e+01
1.951470e+01
2.392226e+01
1.955992e+01
3.225760e+01
2.372705e+01
3.233365e+01
2.380310e+01
2.394081e+01
1.954781e+01
2.397584e+01
1.958284e+01
3.235387e+01
2.378093e+01
3.240807e+01
2.383513e+01
2.398971e+01
1.957378e+01
2.401466e+01
1.959873e+01
3.242154e+01
2.382037e+01
3.245402e+01
2.385284e+01
2.402390e+01
1.959271e+01
2.403883e+01
1.960764e+01
3.246075e+01
2.384546e+01
3.247156e+01
2.385628e+01
2.404345e+01
1.960463e+01
2.404842e+01
1.960961e+01
</DataArray>
<DataArray type="Float32" Name="V2" format="ascii">
6.343018e-01
6.782442e-01
6.348366e-01
6.787593e-01
6.782442e-01
7.300000e-01
6.787593e-01
7.304934e-01
6.348366e-01
6.787593e-01
6.364362e-01
6.803032e-01
6.787593e-01
7.304934e-01
6.803032e-01
7.319728e-01
6.364362e-01
6.803032e-01
6.390995e-01
6.828739e-01
6.803032e-01
7.319728e-01
6.828739e-01
7.344359e-01
6.390995e-01
6.828739e-01
6.428223e-01
6.864672e-01
6.828739e-01
7.344359e-01
6.864672e-01
7.378788e-01
6.428223e-01
6.864672e-01
6.475989e-01
6.910777e-01
6.864672e-01
7.378788e-01
6.910777e-01
7.422964e-01
6.475989e-01
6.910777e-01
6.534216e-01
6.966983e-01
6.910777e-01
7.422964e-01
6.966983e-01
7.476817e-01
6.534216e-01
6.966983e-01
6.602816e-01
7.033202e-01
6.966983e-01
7.476817e-01
7.033202e-01
7.540264e-01
6.602816e-01
7.033202e-01
6.681680e-01
7.109335e-01
7.033202e-01
7.540264e-01
7.109335e-01
7.613207e-01
6.681680e-01
7.109335e-01
6.770684e-01
7.195263e-01
7.109335e-01
7.613207e-01
7.195263e-01
7.695535e-01
6.770684e-01
7.195263e-01
6.869689e-01
7.290855e-01
7.195263e-01
7.695535e-01
7.290855e-01
7.787119e-01
6.869689e-01
7.290855e-01
6.978539e-01
7.395967e-01
7.290855e-01
7.787119e-01
7.395967e-01
7.887821e-01
6.978539e-01
7.395967e-01
7.097062e-01
7.510437e-01
7.395967e-01
7.887821e-01
7.510437e-01
7.997488e-01
7.097062e-01
7.510437e-01
7.225068e-01
7.634095e-01
7.510437e-01
7.997488e-01
7.634095e-01
8.115955e-01
7.225068e-01
7.634095e-01
7.362354e-01
7.766756e-01
7.634095e-01
8.115955e-01
7.766756e-01
8.243046e-01
7.362354e-01
7.766756e-01
7.508697e-01
7.908224e-01
7.766756e-01
8.243046e-01
7.908224e-01
8.378576e-01
7.508697e-01
7.908224e-01
7.663857e-01
8.058292e-01
7.908224e-01
8.378576e-01
8.058292e-01
8.522354e-01
7.663857e-01
8.058292e-01
7.827573e-01
8.216746e-01
8.058292e-01
8.522354e-01
8.216746e-01
8.674181e-01
7.827573e-01
8.216746e-01
7.999565e-01
8.383364e-01
8.216746e-01
8.674181e-01
8.383364e-01
8.833859e-01
7.999565e-01
8.383364e-01
8.179525e-01
8.557914e-01
8.383364e-01
8.833859e-01
8.557914e-01
9.001194e-01
8.179525e-01
8.557914e-01
8.367114e-01
8.740162e-01
8.557914e-01
9.001194e-01
8.740162e-01
9.175998e-01
8.367114e-01
8.740162e-01
8.561950e-01
8.929863e-01
8.740162e-01
9.175998e-01
8.929863e-01
9.358098e-01
8.561950e-01
8.929863e-01
8.763599e-01
9.126757e-01
8.929863e-01
9.358098e-01
9.126757e-01
9.547344e-01
8.763599e-01
9.126757e-01
8.971548e-01
9.330562e-01
9.126757e-01
9.547344e-01
9.330562e-01
9.743611e-01
8.971548e-01
9.330562e-01
9.185176e-01
9.540940e-01
9.330562e-01
9.743611e-01
9.540940e-01
9.946812e-01
9.185176e-01
9.540940e-01
9.403704e-01
9.757440e-01
9.540940e-01
9.946812e-01
9.757440e-01
1.015689e+00
9.403704e-01
9.757440e-01
9.626105e-01
9.979382e-01
9.757440e-01
1.015689e+00
9.979382e-01
1.037378e+00
9.626105e-01
9.979382e-01
9.850968e-01
1.020561e+00
9.979382e-01
1.037378e+00
1.020561e+00
1.059735e+00
9.850968e-01
1.020561e+00
1.007613e+00
1.043387e+00
1.020561e+00
1.059735e+00
1.043387e+00
1.082723e+00
1.007613e+00
1.043387e+00
1.029880e+00
1.066086e+00
1.043387e+00
1.082723e+00
1.066086e+00
1.106138e+00
1.029880e+00
1.066086e+00
1.051495e+00
1.088062e+00
1.066086e+00
1.106138e+00
1.088062e+00
1.128334e+00
1.051495e+00
1.088062e+00
1.072049e+00
1.108853e+00
1.088062e+00
1.128334e+00
1.108853e+00
1.149043e+00
1.072049e+00
1.108853e+00
1.091466e+00
1.128565e+00
1.108853e+00
1.149043e+00
1.128565e+00
1.168833e+00
1.091466e+00
1.128565e+00
1.109769e+00
1.147213e+00
1.128565e+00
1.168833e+00
1.147213e+00
1.187646e+00
1.109769e+00
1.147213e+00
1.127027e+00
1.164829e+00
1.147213e+00
1.187646e+00
1.164829e+00
1.205483e+00
1.127027e+00
1.164829e+00
1.143298e+00
1.181440e+00
1.164829e+00
1.205483e+00
1.181440e+00
1.222343e+00
1.143298e+00
1.181440e+00
1.158634e+00
1.197085e+00
1.181440e+00
1.222343e+00
1.197085e+00
1.238243e+00
1.158634e+00
1.197085e+00
1.173084e+00
1.211803e+00
1.197085e+00
1.238243e+00
1.211803e+00
1.253208e+00
1.173084e+00
1.211803e+00
1.186691e+00
1.225637e+00
1.211803e+00
1.253208e+00
1.225637e+00
1.267271e+00
1.186691e+00
1.225637e+00
1.199494e+00
1.238628e+00
1.225637e+00
1.267271e+00
1.238628e+00
1.280471e+00
1.199494e+00
1.238628e+00
1.211533e+00
1.250819e+00
1.238628e+00
1.280471e+00
1.250819e+00
1.292844e+00
1.211533e+00
1.250819e+00
1.222841e+00
1.262247e+00
1.250819e+00
1.292844e+00
1.262247e+00
1.304432e+00
1.222841e+00
1.262247e+00
1.233451e+00
1.272950e+00
1.262247e+00
1.304432e+00
1.272950e+00
1.315271e+00
1.233451e+00
1.272950e+00
1.243394e+00
1.282961e+00
1.272950e+00
1.315271e+00
1.282961e+00
1.325397e+00
1.243394e+00
1.282961e+00
1.252697e+00
1.292314e+00
1.282961e+00
1.325397e+00
1.292314e+00
1.334845e+00
1.252697e+00
1.292314e+00
1.261387e+00
1.301036e+00
1.292314e+00
1.334845e+00
1.301036e+00
1.343646e+00
1.261387e+00
1.301036e+00
1.269488e+00
1.309157e+00
1.301036e+00
1.343646e+00
1.309157e+00
1.351830e+00
1.269488e+00
1.309157e+00
1.277022e+00
1.316699e+00
1.309157e+00
1.351830e+00
1.316699e+00
1.359423e+00
1.277022e+00
1.316699e+00
1.284008e+00
1.323686e+00
1.316699e+00
1.359423e+00
1.323686e+00
1.366450e+00
1.284008e+00
1.323686e+00
1.290466e+00
1.330138e+00
1.323686e+00
1.366450e+00
1.330138e+00
1.372933e+00
1.290466e+00
1.330138e+00
1.296413e+00
1.336073e+00
1.330138e+00
1.372933e+00
1.336073e+00
1.378892e+00
1.296413e+00
1.336073e+00
1.301863e+00
1.341509e+00
1.336073e+00
1.378892e+00
1.341509e+00
1.384345e+00
1.301863e+00
1.341509e+00
1.306830e+00
1.346460e+00
1.341509e+00
1.384345e+00
1.346460e+00
1.389308e+00
1.306830e+00
1.346460e+00
1.311327e+00
1.350939e+00
1.346460e+00
1.389308e+00
1.350939e+00
1.393795e+00
1.311327e+00
1.350939e+00
1.315364e+00
1.354959e+00
1.350939e+00
1.393795e+00
1.354959e+00
1.397820e+00
1.315364e+00
1.354959e+00
1.318951e+00
1.358529e+00
1.354959e+00
1.397820e+00
1.358529e+00
1.401392e+00
1.318951e+00
1.358529e+00
1.322097e+00
1.361658e+00
1.358529e+00
1.401392e+00
1.361658e+00
1.404523e+00
1.322097e+00
1.361658e+00
1.324810e+00
1.364355e+00
1.361658e+00
1.404523e+00
1.364355e+00
1.407220e+00
1.324810e+00
1.364355e+00
1.327094e+00
1.366626e+00
1.364355e+00
1.407220e+00
1.366626e+00
1.409490e+00
1.327094e+00
1.366626e+00
1.328956e+00
1.368477e+00
1.366626e+00
1.409490e+00
1.368477e+00
1.411340e+00
1.328956e+00
1.368477e+00
1.330400e+00
1.369912e+00
1.368477e+00
1.411340e+00
1.369912e+00
1.412774e+00
1.330400e+00
1.369912e+00
1.331429e+00
1.370935e+00
1.369912e+00
1.412774e+00
1.370935e+00
1.413796e+00
1.331429e+00
1.370935e+00
1.332046e+00
1.371547e+00
1.370935e+00
1.413796e+00
1.371547e+00
1.414407e+00
1.332046e+00
1.371547e+00
1.332251e+00
1.371751e+00
1.371547e+00
1.414407e+00
1.371751e+00
1.414611e+00
</DataArray>
<DataArray type="Float32" Name="V3" format="ascii">
0.000000e+00
0.000000e+00
1.310975e-02
1.198692e-02
0.000000e+00
0.000000e+00
1.198692e-02
1.068291e-02
1.310975e-02
1.198692e-02
2.617373e-02
2.392944e-02
1.198692e-02
1.068291e-02
2.392944e-02
2.132304e-02
2.617373e-02
2.392944e-02
3.914595e-02
3.578318e-02
2.392944e-02
2.132304e-02
3.578318e-02
3.187775e-02
3.914595e-02
3.578318e-02
5.198069e-02
4.750388e-02
3.578318e-02
3.187775e-02
4.750388e-02
4.230445e-02
5.198069e-02
4.750388e-02
6.463234e-02
5.904744e-02
4.750388e-02
4.230445e-02
5.904744e-02
5.256075e-02
6.463234e-02
5.904744e-02
7.705549e-02
7.036996e-02
5.904744e-02
5.256075e-02
7.036996e-02
6.260449e-02
7.705549e-02
7.036996e-02
8.920493e-02
8.142778e-02
7.036996e-02
6.260449e-02
8.142778e-02
7.239381e-02
8.920493e-02
8.142778e-02
1.010357e-01
9.217758e-02
8.142778e-02
7.239381e-02
9.217758e-02
8.188724e-02
1.010357e-01
9.217758e-02
1.125032e-01
1.025764e-01
9.217758e-02
8.188724e-02
1.025764e-01
9.104374e-02
1.125032e-01
1.025764e-01
1.235631e-01
1.125816e-01
1.025764e-01
9.104374e-02
1.125816e-01
9.982285e-02
1.235631e-01
1.125816e-01
1.341713e-01
1.221512e-01
1.125816e-01
9.982285e-02
1.221512e-01
1.081847e-01
1.341713e-01
1.221512e-01
1.442841e-01
1.312434e-01
1.221512e-01
1.081847e-01
1.312434e-01
1.160903e-01
1.442841e-01
1.312434e-01
1.538581e-01
1.398173e-01
1.312434e-01
1.160903e-01
1.398173e-01
1.235015e-01
1.538581e-01
1.398173e-01
1.628501e-01
1.478324e-01
1.398173e-01
1.235015e-01
1.478324e-01
1.303811e-01
1.628501e-01
1.478324e-01
1.712173e-01
1.552487e-01
1.478324e-01
1.303811e-01
1.552487e-01
1.366933e-01
1.712173e-01
1.552487e-01
1.789165e-01
1.620272e-01
1.552487e-01
1.366933e-01
1.620272e-01
1.424038e-01
1.789165e-01
1.620272e-01
1.859048e-01
1.681293e-01
1.620272e-01
1.424038e-01
1.681293e-01
1.474800e-01
1.859048e-01
1.681293e-01
1.921390e-01
1.735171e-01
1.681293e-01
1.474800e-01
1.735171e-01
1.518914e-01
1.921390e-01
1.735171e-01
1.975752e-01
1.781536e-01
1.735171e-01
1.518914e-01
1.781536e-01
1.556099e-01
1.975752e-01
1.781536e-01
2.021690e-01
1.820023e-01
1.781536e-01
1.556099e-01
1.820023e-01
1.586102e-01
2.021690e-01
1.820023e-01
2.058748e-01
1.850275e-01
1.820023e-01
1.586102e-01
1.850275e-01
1.608702e-01
2.058748e-01
1.850275e-01
2.086463e-01
1.871940e-01
1.850275e-01
1.608702e-01
1.871940e-01
1.623713e-01
2.086463e-01
1.871940e-01
2.104363e-01
1.884671e-01
1.871940e-01
1.623713e-01
1.884671e-01
1.630987e-01
2.104363e-01
1.884671e-01
2.111979e-01
1.888128e-01
1.884671e-01
1.630987e-01
1.888128e-01
1.630408e-01
2.111979e-01
1.888128e-01
2.108871e-01
1.881976e-01
1.888128e-01
1.630408e-01
1.881976e-01
1.621879e-01
2.108871e-01
1.881976e-01
2.094682e-01
1.865904e-01
1.881976e-01
1.621879e-01
1.865904e-01
1.605283e-01
2.094682e-01
1.865904e-01
2.069248e-01
1.839654e-01
1.865904e-01
1.605283e-01
1.839654e-01
1.580371e-01
2.069248e-01
1.839654e-01
2.032852e-01
1.803228e-01
1.839654e-01
1.580371e-01
1.803228e-01
1.546601e-01
2.032852e-01
1.803228e-01
1.986580e-01
1.757331e-01
1.803228e-01
1.546601e-01
1.757331e-01
1.501639e-01
1.986580e-01
1.757331e-01
1.934232e-01
1.707083e-01
1.757331e-01
1.501639e-01
1.707083e-01
1.453303e-01
1.934232e-01
1.707083e-01
1.878746e-01
1.656318e-01
1.707083e-01
1.453303e-01
1.656318e-01
1.413055e-01
1.878746e-01
1.656318e-01
1.822345e-01
1.607181e-01
1.656318e-01
1.413055e-01
1.607181e-01
1.375815e-01
1.822345e-01
1.607181e-01
1.766020e-01
1.559942e-01
1.607181e-01
1.375815e-01
1.559942e-01
1.340719e-01
1.766020e-01
1.559942e-01
1.709972e-01
1.514059e-01
1.559942e-01
1.340719e-01
1.514059e-01
1.307029e-01
1.709972e-01
1.514059e-01
1.654243e-01
1.469052e-01
1.514059e-01
1.307029e-01
1.469052e-01
1.274140e-01
1.654243e-01
1.469052e-01
1.598781e-01
1.424508e-01
1.469052e-01
1.274140e-01
1.424508e-01
1.241529e-01
1.598781e-01
1.424508e-01
1.543500e-01
1.380094e-01
1.424508e-01
1.241529e-01
1.380094e-01
1.208757e-01
1.543500e-01
1.380094e-01
1.488300e-01
1.335540e-01
1.380094e-01
1.208757e-01
1.335540e-01
1.175473e-01
1.488300e-01
1.335540e-01
1.433080e-01
1.290631e-01
1.335540e-01
1.175473e-01
1.290631e-01
1.141400e-01
1.433080e-01
1.290631e-01
1.377744e-01
1.245201e-01
1.290631e-01
1.141400e-01
1.245201e-01
1.106331e-01
1.377744e-01
1.245201e-01
1.322204e-01
1.199120e-01
1.245201e-01
1.106331e-01
1.199120e-01
1.070116e-01
1.322204e-01
1.199120e-01
1.266385e-01
1.152293e-01
1.199120e-01
1.070116e-01
1.152293e-01
1.032654e-01
1.266385e-01
1.152293e-01
1.210224e-01
1.104653e-01
1.152293e-01
1.032654e-01
1.104653e-01
9.938847e-02
1.210224e-01
1.104653e-01
1.153667e-01
1.056157e-01
1.104653e-01
9.938847e-02
1.056157e-01
9.537787e-02
1.153667e-01
1.056157e-01
1.096677e-01
1.006781e-01
1.056157e-01
9.537787e-02
1.006781e-01
9.123330e-02
1.096677e-01
1.006781e-01
1.039224e-01
9.565192e-02
1.006781e-01
9.123330e-02
9.565192e-02
8.695652e-02
1.039224e-01
9.565192e-02
9.812901e-02
9.053773e-02
9.565192e-02
8.695652e-02
9.053773e-02
8.255090e-02
9.812901e-02
9.053773e-02
9.228660e-02
8.533735e-02
9.053773e-02
8.255090e-02
8.533735e-02
7.802106e-02
9.228660e-02
8.533735e-02
8.639511e-02
8.005352e-02
8.533735e-02
7.802106e-02
8.005352e-02
7.337264e-02
8.639511e-02
8.005352e-02
8.045520e-02
7.468969e-02
8.005352e-02
7.337264e-02
7.468969e-02
6.861198e-02
8.045520e-02
7.468969e-02
7.446817e-02
6.924997e-02
7.468969e-02
6.861198e-02
6.924997e-02
6.374600e-02
7.446817e-02
6.924997e-02
6.843591e-02
6.373892e-02
6.924997e-02
6.374600e-02
6.373892e-02
5.878206e-02
6.843591e-02
6.373892e-02
6.236075e-02
5.816154e-02
6.373892e-02
5.878206e-02
5.816154e-02
5.372781e-02
6.236075e-02
5.816154e-02
5.624549e-02
5.252313e-02
5.816154e-02
5.372781e-02
5.252313e-02
4.859113e-02
5.624549e-02
5.252313e-02
5.009324e-02
4.682925e-02
5.252313e-02
4.859113e-02
4.682925e-02
4.338006e-02
5.009324e-02
4.682925e-02
4.390746e-02
4.108568e-02
4.682925e-02
4.338006e-02
4.108568e-02
3.810273e-02
4.390746e-02
4.108568e-02
3.769182e-02
3.529833e-02
4.108568e-02
3.810273e-02
3.529833e-02
3.276737e-02
3.769182e-02
3.529833e-02
3.145023e-02
2.947327e-02
3.529833e-02
3.276737e-02
2.947327e-02
2.738223e-02
3.145023e-02
2.947327e-02
2.518678e-02
2.361666e-02
2.947327e-02
2.738223e-02
2.361666e-02
2.195558e-02
2.518678e-02
2.361666e-02
1.890567e-02
1.773472e-02
2.361666e-02
2.195558e-02
1.773472e-02
1.649574e-02
1.890567e-02
1.773472e-02
1.261122e-02
1.183374e-02
1.773472e-02
1.649574e-02
1.183374e-02
1.101099e-02
1.261122e-02
1.183374e-02
6.307851e-03
5.920054e-03
1.183374e-02
1.101099e-02
5.920054e-03
5.509647e-03
6.307851e-03
5.920054e-03
0.000000e+00
0.000000e+00
5.920054e-03
5.509647e-03
0.000000e+00
0.000000e+00
</DataArray>
<DataArray type="Float32" Name="V4" format="ascii">
8.500000e-01
9.250000e-01
8.500000e-01
9.250000e-01
9.250000e-01
1.000000e+00