<?xml version="1.0"?>
<VTKFile type="UnstructuredGrid" version="0.1" byte_order="LittleEndian" compressor="vtkZLibDataCompressor">
<UnstructuredGrid>
<Piece NumberOfPoints="504" NumberOfCells="126">
<Points>
<DataArray type="Float32" NumberOfComponents="3" format="ascii">
0.000000e+00 4.045468e-01 0.000000e+00
0.000000e+00 4.260147e-01 0.000000e+00
4.138194e-02 4.045554e-01 0.000000e+00
4.138036e-02 4.260160e-01 0.000000e+00
0.000000e+00 4.260147e-01 0.000000e+00
0.000000e+00 4.512500e-01 0.000000e+00
4.138036e-02 4.260160e-01 0.000000e+00
4.138053e-02 4.512500e-01 0.000000e+00
4.138194e-02 4.045554e-01 0.000000e+00
4.138036e-02 4.260160e-01 0.000000e+00
8.276286e-02 4.045673e-01 0.000000e+00
8.275964e-02 4.260223e-01 0.000000e+00
4.138036e-02 4.260160e-01 0.000000e+00
4.138053e-02 4.512500e-01 0.000000e+00
8.275964e-02 4.260223e-01 0.000000e+00
8.275985e-02 4.512500e-01 0.000000e+00
8.276286e-02 4.045673e-01 0.000000e+00
8.275964e-02 4.260223e-01 0.000000e+00
1.241412e-01 4.045867e-01 0.000000e+00
1.241364e-01 4.260328e-01 0.000000e+00
8.275964e-02 4.260223e-01 0.000000e+00
8.275985e-02 4.512500e-01 0.000000e+00
1.241364e-01 4.260328e-01 0.000000e+00
1.241367e-01 4.512500e-01 0.000000e+00
1.241412e-01 4.045867e-01 0.000000e+00
1.241364e-01 4.260328e-01 0.000000e+00
1.655158e-01 4.046140e-01 0.000000e+00
1.655094e-01 4.260476e-01 0.000000e+00
1.241364e-01 4.260328e-01 0.000000e+00
1.241367e-01 4.512500e-01 0.000000e+00
1.655094e-01 4.260476e-01 0.000000e+00
1.655098e-01 4.512500e-01 0.000000e+00
1.655158e-01 4.046140e-01 0.000000e+00
1.655094e-01 4.260476e-01 0.000000e+00
2.068853e-01 4.046490e-01 0.000000e+00
2.068773e-01 4.260665e-01 0.000000e+00
1.655094e-01 4.260476e-01 0.000000e+00
1.655098e-01 4.512500e-01 0.000000e+00
2.068773e-01 4.260665e-01 0.000000e+00
2.068778e-01 4.512500e-01 0.000000e+00
2.068853e-01 4.046490e-01 0.000000e+00
2.068773e-01 4.260665e-01 0.000000e+00
2.482485e-01 4.046917e-01 0.000000e+00
2.482389e-01 4.260896e-01 0.000000e+00
2.068773e-01 4.260665e-01 0.000000e+00
2.068778e-01 4.512500e-01 0.000000e+00
2.482389e-01 4.260896e-01 0.000000e+00
2.482396e-01 4.512500e-01 0.000000e+00
2.482485e-01 4.046917e-01 0.000000e+00
2.482389e-01 4.260896e-01 0.000000e+00
2.896040e-01 4.047421e-01 0.000000e+00
2.895930e-01 4.261169e-01 0.000000e+00
2.482389e-01 4.260896e-01 0.000000e+00
2.482396e-01 4.512500e-01 0.000000e+00
2.895930e-01 4.261169e-01 0.000000e+00
2.895939e-01 4.512500e-01 0.000000e+00
2.896040e-01 4.047421e-01 0.000000e+00
2.895930e-01 4.261169e-01 0.000000e+00
3.309506e-01 4.048002e-01 0.000000e+00
3.309381e-01 4.261484e-01 0.000000e+00
2.895930e-01 4.261169e-01 0.000000e+00
2.895939e-01 4.512500e-01 0.000000e+00
3.309381e-01 4.261484e-01 0.000000e+00
3.309392e-01 4.512500e-01 0.000000e+00
3.309506e-01 4.048002e-01 0.000000e+00
3.309381e-01 4.261484e-01 0.000000e+00
3.722868e-01 4.048660e-01 0.000000e+00
3.722730e-01 4.261839e-01 0.000000e+00
3.309381e-01 4.261484e-01 0.000000e+00
3.309392e-01 4.512500e-01 0.000000e+00
3.722730e-01 4.261839e-01 0.000000e+00
3.722744e-01 4.512500e-01 0.000000e+00
3.722868e-01 4.048660e-01 0.000000e+00
3.722730e-01 4.261839e-01 0.000000e+00
4.136114e-01 4.049393e-01 0.000000e+00
4.135963e-01 4.262236e-01 0.000000e+00
3.722730e-01 4.261839e-01 0.000000e+00
3.722744e-01 4.512500e-01 0.000000e+00
4.135963e-01 4.262236e-01 0.000000e+00
4.135980e-01 4.512500e-01 0.000000e+00
4.136114e-01 4.049393e-01 0.000000e+00
4.135963e-01 4.262236e-01 0.000000e+00
4.549230e-01 4.050202e-01 0.000000e+00
4.549066e-01 4.262674e-01 0.000000e+00
4.135963e-01 4.262236e-01 0.000000e+00
4.135980e-01 4.512500e-01 0.000000e+00
4.549066e-01 4.262674e-01 0.000000e+00
4.549088e-01 4.512500e-01 0.000000e+00
4.549230e-01 4.050202e-01 0.000000e+00
4.549066e-01 4.262674e-01 0.000000e+00
4.962201e-01 4.051085e-01 0.000000e+00
4.962026e-01 4.263152e-01 0.000000e+00
4.549066e-01 4.262674e-01 0.000000e+00
4.549088e-01 4.512500e-01 0.000000e+00
4.962026e-01 4.263152e-01 0.000000e+00
4.962053e-01 4.512500e-01 0.000000e+00
4.962201e-01 4.051085e-01 0.000000e+00
4.962026e-01 4.263152e-01 0.000000e+00
5.375013e-01 4.052043e-01 0.000000e+00
5.374828e-01 4.263670e-01 0.000000e+00
4.962026e-01 4.263152e-01 0.000000e+00
4.962053e-01 4.512500e-01 0.000000e+00
5.374828e-01 4.263670e-01 0.000000e+00
5.374861e-01 4.512500e-01 0.000000e+00
5.375013e-01 4.052043e-01 0.000000e+00
5.374828e-01 4.263670e-01 0.000000e+00
5.787652e-01 4.053074e-01 0.000000e+00
5.787457e-01 4.264228e-01 0.000000e+00
5.374828e-01 4.263670e-01 0.000000e+00
5.374861e-01 4.512500e-01 0.000000e+00
5.787457e-01 4.264228e-01 0.000000e+00
5.787497e-01 4.512500e-01 0.000000e+00
5.787652e-01 4.053074e-01 0.000000e+00
5.787457e-01 4.264228e-01 0.000000e+00
6.200101e-01 4.054178e-01 0.000000e+00
6.199899e-01 4.264825e-01 0.000000e+00
5.787457e-01 4.264228e-01 0.000000e+00
5.787497e-01 4.512500e-01 0.000000e+00
6.199899e-01 4.264825e-01 0.000000e+00
6.199947e-01 4.512500e-01 0.000000e+00
6.200101e-01 4.054178e-01 0.000000e+00
6.199899e-01 4.264825e-01 0.000000e+00
6.612345e-01 4.055354e-01 0.000000e+00
6.612137e-01 4.265462e-01 0.000000e+00
6.199899e-01 4.264825e-01 0.000000e+00
6.199947e-01 4.512500e-01 0.000000e+00
6.612137e-01 4.265462e-01 0.000000e+00
6.612195e-01 4.512500e-01 0.000000e+00
6.612345e-01 4.055354e-01 0.000000e+00
6.612137e-01 4.265462e-01 0.000000e+00
7.024368e-01 4.056601e-01 0.000000e+00
7.024157e-01 4.266137e-01 0.000000e+00
6.612137e-01 4.265462e-01 0.000000e+00
6.612195e-01 4.512500e-01 0.000000e+00
7.024157e-01 4.266137e-01 0.000000e+00
7.024227e-01 4.512500e-01 0.000000e+00
7.024368e-01 4.056601e-01 0.000000e+00
7.024157e-01 4.266137e-01 0.000000e+00
7.436154e-01 4.057919e-01 0.000000e+00
7.435942e-01 4.266851e-01 0.000000e+00
7.024157e-01 4.266137e-01 0.000000e+00
7.024227e-01 4.512500e-01 0.000000e+00
7.435942e-01 4.266851e-01 0.000000e+00
7.436026e-01 4.512500e-01 0.000000e+00
7.436154e-01 4.057919e-01 0.000000e+00
7.435942e-01 4.266851e-01 0.000000e+00
7.847685e-01 4.059307e-01 0.000000e+00
7.847475e-01 4.267603e-01 0.000000e+00
7.435942e-01 4.266851e-01 0.000000e+00
7.436026e-01 4.512500e-01 0.000000e+00
7.847475e-01 4.267603e-01 0.000000e+00
7.847576e-01 4.512500e-01 0.000000e+00
7.847685e-01 4.059307e-01 0.000000e+00
7.847475e-01 4.267603e-01 0.000000e+00
8.258943e-01 4.060763e-01 0.000000e+00
8.258738e-01 4.268392e-01 0.000000e+00
7.847475e-01 4.267603e-01 0.000000e+00
7.847576e-01 4.512500e-01 0.000000e+00
8.258738e-01 4.268392e-01 0.000000e+00
8.258861e-01 4.512500e-01 0.000000e+00
8.258943e-01 4.060763e-01 0.000000e+00
8.258738e-01 4.268392e-01 0.000000e+00
8.669910e-01 4.062287e-01 0.000000e+00
8.669715e-01 4.269218e-01 0.000000e+00
8.258738e-01 4.268392e-01 0.000000e+00
8.258861e-01 4.512500e-01 0.000000e+00
8.669715e-01 4.269218e-01 0.000000e+00
8.669862e-01 4.512500e-01 0.000000e+00
8.669910e-01 4.062287e-01 0.000000e+00
8.669715e-01 4.269218e-01 0.000000e+00
9.080566e-01 4.063878e-01 0.000000e+00
9.080387e-01 4.270081e-01 0.000000e+00
8.669715e-01 4.269218e-01 0.000000e+00
8.669862e-01 4.512500e-01 0.000000e+00
9.080387e-01 4.270081e-01 0.000000e+00
9.080565e-01 4.512500e-01 0.000000e+00
9.080566e-01 4.063878e-01 0.000000e+00
9.080387e-01 4.270081e-01 0.000000e+00
9.490891e-01 4.065535e-01 0.000000e+00
9.490735e-01 4.270980e-01 0.000000e+00
9.080387e-01 4.270081e-01 0.000000e+00
9.080565e-01 4.512500e-01 0.000000e+00
9.490735e-01 4.270980e-01 0.000000e+00
9.490950e-01 4.512500e-01 0.000000e+00
9.490891e-01 4.065535e-01 0.000000e+00
9.490735e-01 4.270980e-01 0.000000e+00
9.900864e-01 4.067257e-01 0.000000e+00
9.900739e-01 4.271915e-01 0.000000e+00
9.490735e-01 4.270980e-01 0.000000e+00
9.490950e-01 4.512500e-01 0.000000e+00
9.900739e-01 4.271915e-01 0.000000e+00
9.901000e-01 4.512500e-01 0.000000e+00
9.900864e-01 4.067257e-01 0.000000e+00
9.900739e-01 4.271915e-01 0.000000e+00
1.031046e+00 4.069042e-01 0.000000e+00
1.031038e+00 4.272885e-01 0.000000e+00
9.900739e-01 4.271915e-01 0.000000e+00
9.901000e-01 4.512500e-01 0.000000e+00
1.031038e+00 4.272885e-01 0.000000e+00
1.031070e+00 4.512500e-01 0.000000e+00
1.031046e+00 4.069042e-01 0.000000e+00
1.031038e+00 4.272885e-01 0.000000e+00
1.071966e+00 4.070891e-01 0.000000e+00
1.071964e+00 4.273891e-01 0.000000e+00
1.031038e+00 4.272885e-01 0.000000e+00
1.031070e+00 4.512500e-01 0.000000e+00
1.071964e+00 4.273891e-01 0.000000e+00
1.072003e+00 4.512500e-01 0.000000e+00
1.071966e+00 4.070891e-01 0.000000e+00
1.071964e+00 4.273891e-01 0.000000e+00
1.112844e+00 4.072801e-01 0.000000e+00
1.112849e+00 4.274931e-01 0.000000e+00
1.071964e+00 4.273891e-01 0.000000e+00
1.072003e+00 4.512500e-01 0.000000e+00
1.112849e+00 4.274931e-01 0.000000e+00
1.112897e+00 4.512500e-01 0.000000e+00
1.112844e+00 4.072801e-01 0.000000e+00
1.112849e+00 4.274931e-01 0.000000e+00
1.153677e+00 4.074771e-01 0.000000e+00
1.153691e+00 4.276007e-01 0.000000e+00
1.112849e+00 4.274931e-01 0.000000e+00
1.112897e+00 4.512500e-01 0.000000e+00
1.153691e+00 4.276007e-01 0.000000e+00
1.153750e+00 4.512500e-01 0.000000e+00
1.153677e+00 4.074771e-01 0.000000e+00
1.153691e+00 4.276007e-01 0.000000e+00
1.194462e+00 4.076802e-01 0.000000e+00
1.194489e+00 4.277118e-01 0.000000e+00
1.153691e+00 4.276007e-01 0.000000e+00
1.153750e+00 4.512500e-01 0.000000e+00
1.194489e+00 4.277118e-01 0.000000e+00
1.194562e+00 4.512500e-01 0.000000e+00
1.194462e+00 4.076802e-01 0.000000e+00
1.194489e+00 4.277118e-01 0.000000e+00
1.235195e+00 4.078891e-01 0.000000e+00
1.235239e+00 4.278264e-01 0.000000e+00
1.194489e+00 4.277118e-01 0.000000e+00
1.194562e+00 4.512500e-01 0.000000e+00
1.235239e+00 4.278264e-01 0.000000e+00
1.235330e+00 4.512500e-01 0.000000e+00
1.235195e+00 4.078891e-01 0.000000e+00
1.235239e+00 4.278264e-01 0.000000e+00
1.275875e+00 4.081039e-01 0.000000e+00
1.275940e+00 4.279446e-01 0.000000e+00
1.235239e+00 4.278264e-01 0.000000e+00
1.235330e+00 4.512500e-01 0.000000e+00
1.275940e+00 4.279446e-01 0.000000e+00
1.276053e+00 4.512500e-01 0.000000e+00
1.275875e+00 4.081039e-01 0.000000e+00
[...]
<PointData>
<DataArray type="Float32" Name="V1" format="ascii">
3.620553e+02
1.500702e+02
3.621920e+02
1.502068e+02
1.550935e+02
4.702903e+01
1.551484e+02
4.708396e+01
3.622334e+02
1.501235e+02
3.625643e+02
1.504545e+02
1.551952e+02
4.706419e+01
1.553508e+02
4.721973e+01
3.626756e+02
1.503134e+02
3.632151e+02
1.508529e+02
1.554390e+02
4.717411e+01
1.557061e+02
4.744129e+01
3.633924e+02
1.506506e+02
3.641422e+02
1.514004e+02
1.558339e+02
4.736808e+01
1.562122e+02
4.774643e+01
3.643849e+02
1.511356e+02
3.653478e+02
1.520985e+02
1.563805e+02
4.764608e+01
1.568706e+02
4.813612e+01
3.656557e+02
1.517697e+02
3.668348e+02
1.529489e+02
1.570803e+02
4.800874e+01
1.576830e+02
4.861151e+01
3.672082e+02
1.525549e+02
3.686069e+02
1.539536e+02
1.579348e+02
4.845696e+01
1.586518e+02
4.917391e+01
3.690464e+02
1.534931e+02
3.706686e+02
1.551153e+02
1.589464e+02
4.899194e+01
1.597794e+02
4.982491e+01
3.711749e+02
1.545870e+02
3.730250e+02
1.564371e+02
1.601176e+02
4.961513e+01
1.610688e+02
5.056629e+01
3.735994e+02
1.558394e+02
3.756823e+02
1.579223e+02
1.614516e+02
5.032822e+01
1.625236e+02
5.140014e+01
3.763261e+02
1.572538e+02
3.786472e+02
1.595750e+02
1.629520e+02
5.113320e+01
1.641476e+02
5.232880e+01
3.793619e+02
1.588339e+02
3.819276e+02
1.613997e+02
1.646227e+02
5.203233e+01
1.659453e+02
5.335492e+01
3.827150e+02
1.605841e+02
3.855321e+02
1.634013e+02
1.664683e+02
5.302816e+01
1.679216e+02
5.448145e+01
3.863940e+02
1.625092e+02
3.894703e+02
1.655855e+02
1.684939e+02
5.412355e+01
1.700821e+02
5.571169e+01
3.904089e+02
1.646146e+02
3.937528e+02
1.679584e+02
1.707052e+02
5.532172e+01
1.724328e+02
5.704928e+01
3.947704e+02
1.669061e+02
3.983911e+02
1.705268e+02
1.731084e+02
5.662620e+01
1.749804e+02
5.849828e+01
3.994903e+02
1.693904e+02
4.033980e+02
1.732980e+02
1.757103e+02
5.804095e+01
1.777325e+02
6.006314e+01
4.045816e+02
1.720746e+02
4.087872e+02
1.762803e+02
1.785185e+02
5.957033e+01
1.806970e+02
6.174880e+01
4.100582e+02
1.749667e+02
4.145740e+02
1.794825e+02
1.815414e+02
6.121915e+01
1.838830e+02
6.356069e+01
4.159355e+02
1.780753e+02
4.207745e+02
1.829143e+02
1.847880e+02
6.299274e+01
1.873001e+02
6.550481e+01
4.222299e+02
1.814099e+02
4.274065e+02
1.865865e+02
1.882683e+02
6.489696e+01
1.909591e+02
6.758779e+01
4.289594e+02
1.849809e+02
4.344888e+02
1.905104e+02
1.919931e+02
6.693832e+01
1.948718e+02
6.981695e+01
4.361431e+02
1.887997e+02
4.420421e+02
1.946987e+02
1.959744e+02
6.912402e+01
1.990508e+02
7.220042e+01
4.438015e+02
1.928787e+02
4.500880e+02
1.991652e+02
2.002251e+02
7.146204e+01
2.035103e+02
7.474724e+01
4.519567e+02
1.972314e+02
4.586501e+02
2.039248e+02
2.047595e+02
7.396130e+01
2.082658e+02
7.746751e+01
4.606319e+02
2.018728e+02
4.677530e+02
2.089938e+02
2.095932e+02
7.663176e+01
2.133340e+02
8.037256e+01
4.698519e+02
2.068192e+02
4.774228e+02
2.143901e+02
2.147433e+02
7.948462e+01
2.187338e+02
8.347517e+01
4.796425e+02
2.120885e+02
4.876869e+02
2.201329e+02
2.202285e+02
8.253255e+01
2.244858e+02
8.678987e+01
4.900306e+02
2.177006e+02
4.985736e+02
2.262436e+02
2.260696e+02
8.578996e+01
2.306129e+02
9.033327e+01
5.010436e+02
2.236772e+02
5.101117e+02
2.327453e+02
2.322894e+02
8.927340e+01
2.371405e+02
9.412455e+01
5.127092e+02
2.300426e+02
5.223299e+02
2.396633e+02
2.389131e+02
9.300202e+01
2.440972e+02
9.818605e+01
5.250543e+02
2.368238e+02
5.352560e+02
2.470256e+02
2.459691e+02
9.699821e+01
2.515149e+02
1.025441e+02
5.381042e+02
2.440510e+02
5.489159e+02
2.548626e+02
2.534886e+02
1.012884e+02
2.594301e+02
1.072299e+02
5.518809e+02
2.517580e+02
5.633309e+02
2.632080e+02
2.615070e+02
1.059041e+02
2.678841e+02
1.122812e+02
5.664010e+02
2.599835e+02
5.785162e+02
2.720988e+02
2.700643e+02
1.108835e+02
2.769247e+02
1.177439e+02
5.816725e+02
2.687715e+02
5.944766e+02
2.815756e+02
2.792057e+02
1.162732e+02
2.866073e+02
1.236748e+02
5.976906e+02
2.781724e+02
6.112016e+02
2.916834e+02
2.889833e+02
1.221312e+02
2.969970e+02
1.301449e+02
6.144323e+02
2.882450e+02
6.286589e+02
3.024716e+02
2.994568e+02
1.285302e+02
3.081709e+02
1.372443e+02
6.318485e+02
2.990579e+02
6.467846e+02
3.139939e+02
3.106953e+02
1.355631e+02
3.202215e+02
1.450892e+02
6.498537e+02
3.106909e+02
6.654711e+02
3.263083e+02
3.227788e+02
1.433504e+02
3.332599e+02
1.538316e+02
6.683128e+02
3.232375e+02
6.845507e+02
3.394755e+02
3.357985e+02
1.520517e+02
3.474210e+02
1.636742e+02
6.870234e+02
3.368056e+02
7.037753e+02
3.535575e+02
3.498550e+02
1.618830e+02
3.628658e+02
1.748939e+02
7.056921e+02
3.515181e+02
7.227908e+02
3.686168e+02
3.650460e+02
1.731471e+02
3.797800e+02
1.878811e+02
7.238947e+02
3.675238e+02
7.411044e+02
3.847336e+02
3.814254e+02
1.862928e+02
3.983484e+02
2.032158e+02
7.409740e+02
3.850691e+02
7.580317e+02
4.021267e+02
3.988688e+02
2.020710e+02
4.186597e+02
2.218619e+02
7.556170e+02
4.049122e+02
7.726454e+02
4.219406e+02
4.167110e+02
2.220862e+02
4.406095e+02
2.459848e+02
7.642710e+02
4.302783e+02
7.843253e+02
4.503326e+02
4.308706e+02
2.538457e+02
4.646580e+02
2.876332e+02
7.754053e+02
4.604159e+02
7.947192e+02
4.797297e+02
4.583613e+02
2.931939e+02
4.808984e+02
3.157310e+02
7.925575e+02
4.817713e+02
8.142473e+02
5.034610e+02
4.807755e+02
3.157137e+02
5.018564e+02
3.367945e+02
8.156958e+02
5.018201e+02
8.394492e+02
5.255734e+02
5.035556e+02
3.356773e+02
5.236398e+02
3.557616e+02
8.427323e+02
5.220590e+02
8.676545e+02
5.469811e+02
5.264180e+02
3.539057e+02
5.454459e+02
3.729335e+02
8.719927e+02
5.423450e+02
8.972762e+02
5.676286e+02
5.488246e+02
3.706556e+02
5.667208e+02
3.885518e+02
9.022049e+02
5.623499e+02
9.271561e+02
5.873010e+02
5.704328e+02
3.860434e+02
5.871162e+02
4.027267e+02
9.323474e+02
5.817237e+02
9.563762e+02
6.057526e+02
5.909563e+02
4.001301e+02
6.063427e+02
4.155165e+02
9.615821e+02
6.001448e+02
9.841923e+02
6.227551e+02
6.101482e+02
4.129437e+02
6.241541e+02
4.269495e+02
9.892173e+02
6.173318e+02
1.009996e+03
6.381106e+02
6.277949e+02
4.244901e+02
6.403415e+02
4.370367e+02
1.014683e+03
6.330452e+02
1.033291e+03
6.516532e+02
6.437136e+02
4.347617e+02
6.547298e+02
4.457779e+02
1.037514e+03
6.470856e+02
1.053676e+03
6.632477e+02
6.577506e+02
4.437432e+02
6.671746e+02
4.531672e+02
1.057335e+03
6.592891e+02
1.070832e+03
6.727864e+02
6.697793e+02
4.514156e+02
6.775591e+02
4.591954e+02
1.073846e+03
6.695237e+02
1.084509e+03
6.801866e+02
6.796976e+02
4.577597e+02
6.857911e+02
4.638532e+02
1.086820e+03
6.776855e+02
1.094522e+03
6.853880e+02
6.874258e+02
4.627572e+02
6.918010e+02
4.671323e+02
1.096086e+03
6.836954e+02
1.100741e+03
6.883508e+02
6.929051e+02
4.663929e+02
6.955392e+02
4.690269e+02
1.101530e+03
6.874971e+02
1.103087e+03
6.890545e+02
6.960954e+02
4.686546e+02
6.969750e+02
4.695341e+02
</DataArray>
<DataArray type="Float32" Name="V2" format="ascii">
4.045468e-01
4.260147e-01
4.054614e-01
4.269152e-01
4.260147e-01
4.512500e-01
4.269152e-01
4.521414e-01
4.054614e-01
4.269152e-01
4.081897e-01
4.296179e-01
4.269152e-01
4.521414e-01
4.296179e-01
4.548143e-01
4.081897e-01
4.296179e-01
4.127325e-01
4.341183e-01
4.296179e-01
4.548143e-01
4.341183e-01
4.592650e-01
4.127325e-01
4.341183e-01
4.190834e-01
4.404098e-01
4.341183e-01
4.592650e-01
4.404098e-01
4.654871e-01
4.190834e-01
4.404098e-01
4.272334e-01
4.484838e-01
4.404098e-01
4.654871e-01
4.484838e-01
4.734719e-01
4.272334e-01
4.484838e-01
4.371711e-01
4.583286e-01
4.484838e-01
4.734719e-01
4.583286e-01
4.832081e-01
4.371711e-01
4.583286e-01
4.488824e-01
4.699305e-01
4.583286e-01
4.832081e-01
4.699305e-01
4.946820e-01
4.488824e-01
4.699305e-01
4.623506e-01
4.832730e-01
4.699305e-01
4.946820e-01
4.832730e-01
5.078772e-01
4.623506e-01
4.832730e-01
4.775568e-01
4.983371e-01
4.832730e-01
5.078772e-01
4.983371e-01
5.227751e-01
4.775568e-01
4.983371e-01
4.944792e-01
5.151016e-01
4.983371e-01
5.227751e-01
5.151016e-01
5.393545e-01
4.944792e-01
5.151016e-01
5.130938e-01
5.335424e-01
5.151016e-01
5.393545e-01
5.335424e-01
5.575919e-01
5.130938e-01
5.335424e-01
5.333741e-01
5.536335e-01
5.335424e-01
5.575919e-01
5.536335e-01
5.774613e-01
5.333741e-01
5.536335e-01
5.552912e-01
5.753460e-01
5.536335e-01
5.774613e-01
5.753460e-01
5.989344e-01
5.552912e-01
5.753460e-01
5.788137e-01
5.986490e-01
5.753460e-01
5.989344e-01
5.986490e-01
6.219804e-01
5.788137e-01
5.986490e-01
6.039079e-01
6.235091e-01
5.986490e-01
6.219804e-01
6.235091e-01
6.465663e-01
6.039079e-01
6.235091e-01
6.305377e-01
6.498906e-01
6.235091e-01
6.465663e-01
6.498906e-01
6.726569e-01
6.305377e-01
6.498906e-01
6.586648e-01
6.777554e-01
6.498906e-01
6.726569e-01
6.777554e-01
7.002145e-01
6.586648e-01
6.777554e-01
6.882485e-01
7.070634e-01
6.777554e-01
7.002145e-01
7.070634e-01
7.291993e-01
6.882485e-01
7.070634e-01
7.192460e-01
7.377721e-01
7.070634e-01
7.291993e-01
7.377721e-01
7.595695e-01
7.192460e-01
7.377721e-01
7.516122e-01
7.698368e-01
7.377721e-01
7.595695e-01
7.698368e-01
7.912808e-01
7.516122e-01
7.698368e-01
7.852999e-01
8.032109e-01
7.698368e-01
7.912808e-01
8.032109e-01
8.242871e-01
7.852999e-01
8.032109e-01
8.202597e-01
8.378454e-01
8.032109e-01
8.242871e-01
8.378454e-01
8.585401e-01
8.202597e-01
8.378454e-01
8.564402e-01
8.736896e-01
8.378454e-01
8.585401e-01
8.736896e-01
8.939897e-01
8.564402e-01
8.736896e-01
8.937881e-01
9.106906e-01
8.736896e-01
8.939897e-01
9.106906e-01
9.305835e-01
8.937881e-01
9.106906e-01
9.322477e-01
9.487937e-01
9.106906e-01
9.305835e-01
9.487937e-01
9.682675e-01
9.322477e-01
9.487937e-01
9.717619e-01
9.879421e-01
9.487937e-01
9.682675e-01
9.879421e-01
1.006986e+00
9.717619e-01
9.879421e-01
1.012271e+00
1.028077e+00
9.879421e-01
1.006986e+00
1.028077e+00
1.046681e+00
1.012271e+00
1.028077e+00
1.053715e+00
1.069140e+00
1.028077e+00
1.046681e+00
1.069140e+00
1.087294e+00
1.053715e+00
1.069140e+00
1.096029e+00
1.111067e+00
1.069140e+00
1.087294e+00
1.111067e+00
1.128763e+00
1.096029e+00
1.111067e+00
1.139150e+00
1.153795e+00
1.111067e+00
1.128763e+00
1.153795e+00
1.171027e+00
1.139150e+00
1.153795e+00
1.183011e+00
1.197259e+00
1.153795e+00
1.171027e+00
1.197259e+00
1.214022e+00
1.183011e+00
1.197259e+00
1.227543e+00
1.241394e+00
1.197259e+00
1.214022e+00
1.241394e+00
1.257683e+00
1.227543e+00
1.241394e+00
1.272676e+00
1.286130e+00
1.241394e+00
1.257683e+00
1.286130e+00
1.301945e+00
1.272676e+00
1.286130e+00
1.318339e+00
1.331400e+00
1.286130e+00
1.301945e+00
1.331400e+00
1.346741e+00
1.318339e+00
1.331400e+00
1.364457e+00
1.377131e+00
1.331400e+00
1.346741e+00
1.377131e+00
1.392004e+00
1.364457e+00
1.377131e+00
1.410955e+00
1.423254e+00
1.377131e+00
1.392004e+00
1.423254e+00
1.437667e+00
1.410955e+00
1.423254e+00
1.457754e+00
1.469696e+00
1.423254e+00
1.437667e+00
1.469696e+00
1.483664e+00
1.457754e+00
1.469696e+00
1.504774e+00
1.516384e+00
1.469696e+00
1.483664e+00
1.516384e+00
1.529928e+00
1.504774e+00
1.516384e+00
1.551931e+00
1.563244e+00
1.516384e+00
1.529928e+00
1.563244e+00
1.576395e+00
1.551931e+00
1.563244e+00
1.599139e+00
1.610202e+00
1.563244e+00
1.576395e+00
1.610202e+00
1.623004e+00
1.599139e+00
1.610202e+00
1.646305e+00
1.657182e+00
1.610202e+00
1.623004e+00
1.657182e+00
1.669697e+00
1.646305e+00
1.657182e+00
1.693334e+00
1.704110e+00
1.657182e+00
1.669697e+00
1.704110e+00
1.716423e+00
1.693334e+00
1.704110e+00
1.740121e+00
1.750908e+00
1.704110e+00
1.716423e+00
1.750908e+00
1.763140e+00
1.740121e+00
1.750908e+00
1.786550e+00
1.797494e+00
1.750908e+00
1.763140e+00
1.797494e+00
1.809822e+00
1.786550e+00
1.797494e+00
1.832483e+00
1.843775e+00
1.797494e+00
1.809822e+00
1.843775e+00
1.856471e+00
1.832483e+00
1.843775e+00
1.877718e+00
1.889593e+00
1.843775e+00
1.856471e+00
1.889593e+00
1.903085e+00
1.877718e+00
1.889593e+00
1.921911e+00
1.934366e+00
1.889593e+00
1.903085e+00
1.934366e+00
1.948578e+00
1.921911e+00
1.934366e+00
1.963728e+00
1.976366e+00
1.934366e+00
1.948578e+00
1.976366e+00
1.990637e+00
1.963728e+00
1.976366e+00
2.002483e+00
2.015497e+00
1.976366e+00
1.990637e+00
2.015497e+00
2.030205e+00
2.002483e+00
2.015497e+00
2.038173e+00
2.051713e+00
2.015497e+00
2.030205e+00
2.051713e+00
2.066992e+00
2.038173e+00
2.051713e+00
2.070846e+00
2.084962e+00
2.051713e+00
2.066992e+00
2.084962e+00
2.100861e+00
2.070846e+00
2.084962e+00
2.100554e+00
2.115238e+00
2.084962e+00
2.100861e+00
2.115238e+00
2.131752e+00
2.100554e+00
2.115238e+00
2.127359e+00
2.142574e+00
2.115238e+00
2.131752e+00
2.142574e+00
2.159666e+00
2.127359e+00
2.142574e+00
2.151332e+00
2.167023e+00
2.142574e+00
2.159666e+00
2.167023e+00
2.184640e+00
2.151332e+00
2.167023e+00
2.172546e+00
2.188653e+00
2.167023e+00
2.184640e+00
2.188653e+00
2.206732e+00
2.172546e+00
2.188653e+00
2.191073e+00
2.207535e+00
2.188653e+00
2.206732e+00
2.207535e+00
2.226010e+00
2.191073e+00
2.207535e+00
2.206981e+00
2.223739e+00
2.207535e+00
2.226010e+00
2.223739e+00
2.242547e+00
2.206981e+00
2.223739e+00
2.220332e+00
2.237331e+00
2.223739e+00
2.242547e+00
2.237331e+00
2.256411e+00
2.220332e+00
2.237331e+00
2.231180e+00
2.248368e+00
2.237331e+00
2.256411e+00
2.248368e+00
2.267663e+00
2.231180e+00
2.248368e+00
2.239569e+00
2.256900e+00
2.248368e+00
2.267663e+00
2.256900e+00
2.276358e+00
2.239569e+00
2.256900e+00
2.245536e+00
2.262966e+00
2.256900e+00
2.276358e+00
2.262966e+00
2.282537e+00
2.245536e+00
2.262966e+00
2.249105e+00
2.266594e+00
2.262966e+00
2.282537e+00
2.266594e+00
2.286232e+00
2.249105e+00
2.266594e+00
2.250293e+00
2.267802e+00
2.266594e+00
2.286232e+00
2.267802e+00
2.287462e+00
</DataArray>
<DataArray type="Float32" Name="V3" format="ascii">
0.000000e+00
0.000000e+00
3.128323e-02
3.074663e-02
0.000000e+00
0.000000e+00
3.074663e-02
3.011769e-02
3.128323e-02
3.074663e-02
6.249397e-02
6.142130e-02
3.074663e-02
3.011769e-02
6.142130e-02
6.016401e-02
6.249397e-02
6.142130e-02
9.355931e-02
9.195181e-02
6.142130e-02
6.016401e-02
9.195181e-02
9.006761e-02
9.355931e-02
9.195181e-02
1.244068e-01
1.222663e-01
9.195181e-02
9.006761e-02
1.222663e-01
1.197573e-01
1.244068e-01
1.222663e-01
1.549642e-01
1.522931e-01
1.222663e-01
1.197573e-01
1.522931e-01
1.491622e-01
1.549642e-01
1.522931e-01
1.851596e-01
1.819610e-01
1.522931e-01
1.491622e-01
1.819610e-01
1.782117e-01
1.851596e-01
1.819610e-01
2.149215e-01
2.111990e-01
1.819610e-01
1.782117e-01
2.111990e-01
2.068355e-01
2.149215e-01
2.111990e-01
2.441790e-01
2.399368e-01
2.111990e-01
2.068355e-01
2.399368e-01
2.349641e-01
2.441790e-01
2.399368e-01
2.728617e-01
2.681045e-01
2.399368e-01
2.349641e-01
2.681045e-01
2.625281e-01
2.728617e-01
2.681045e-01
3.008997e-01
2.956329e-01
2.681045e-01
2.625281e-01
2.956329e-01
2.894592e-01
3.008997e-01
2.956329e-01
3.282241e-01
3.224537e-01
2.956329e-01
2.894592e-01
3.224537e-01
3.156895e-01
3.282241e-01
3.224537e-01
3.547666e-01
3.484991e-01
3.224537e-01
3.156895e-01
3.484991e-01
3.411520e-01
3.547666e-01
3.484991e-01
3.804601e-01
3.737024e-01
3.484991e-01
3.411520e-01
3.737024e-01
3.657806e-01
3.804601e-01
3.737024e-01
4.052381e-01
3.979979e-01
3.737024e-01
3.657806e-01
3.979979e-01
3.895102e-01
4.052381e-01
3.979979e-01
4.290354e-01
4.213207e-01
3.979979e-01
3.895102e-01
4.213207e-01
4.122766e-01
4.290354e-01
4.213207e-01
4.517878e-01
4.436073e-01
4.213207e-01
4.122766e-01
4.436073e-01
4.340169e-01
4.517878e-01
4.436073e-01
4.734325e-01
4.647953e-01
4.436073e-01
4.340169e-01
4.647953e-01
4.546691e-01
4.734325e-01
4.647953e-01
4.939078e-01
4.848235e-01
4.647953e-01
4.546691e-01
4.848235e-01
4.741728e-01
4.939078e-01
4.848235e-01
5.131535e-01
5.036321e-01
4.848235e-01
4.741728e-01
5.036321e-01
4.924686e-01
5.131535e-01
5.036321e-01
5.311106e-01
5.211627e-01
5.036321e-01
4.924686e-01
5.211627e-01
5.094988e-01
5.311106e-01
5.211627e-01
5.477219e-01
5.373585e-01
5.211627e-01
5.094988e-01
5.373585e-01
5.252071e-01
5.477219e-01
5.373585e-01
5.629315e-01
5.521641e-01
5.373585e-01
5.252071e-01
5.521641e-01
5.395387e-01
5.629315e-01
5.521641e-01
5.766854e-01
5.655259e-01
5.521641e-01
5.395387e-01
5.655259e-01
5.524404e-01
5.766854e-01
5.655259e-01
5.889311e-01
5.773919e-01
5.655259e-01
5.524404e-01
5.773919e-01
5.638608e-01
5.889311e-01
5.773919e-01
5.996179e-01
5.877120e-01
5.773919e-01
5.638608e-01
5.877120e-01
5.737504e-01
5.996179e-01
5.877120e-01
6.086970e-01
5.964377e-01
5.877120e-01
5.737504e-01
5.964377e-01
5.820613e-01
6.086970e-01
5.964377e-01
6.161215e-01
6.035226e-01
5.964377e-01
5.820613e-01
6.035226e-01
5.887478e-01
6.161215e-01
6.035226e-01
6.218464e-01
6.089224e-01
6.035226e-01
5.887478e-01
6.089224e-01
5.937659e-01
6.218464e-01
6.089224e-01
6.258287e-01
6.125944e-01
6.089224e-01
5.937659e-01
6.125944e-01
5.970741e-01
6.258287e-01
6.125944e-01
6.280273e-01
6.144985e-01
6.125944e-01
5.970741e-01
6.144985e-01
5.986328e-01
6.280273e-01
6.144985e-01
6.284034e-01
6.145963e-01
6.144985e-01
5.986328e-01
6.145963e-01
5.984048e-01
6.284034e-01
6.145963e-01
6.269201e-01
6.128520e-01
6.145963e-01
5.984048e-01
6.128520e-01
5.963551e-01
6.269201e-01
6.128520e-01
6.235428e-01
6.092319e-01
6.128520e-01
5.963551e-01
6.092319e-01
5.924513e-01
6.235428e-01
6.092319e-01
6.182390e-01
6.037044e-01
6.092319e-01
5.924513e-01
6.037044e-01
5.866637e-01
6.182390e-01
6.037044e-01
6.109783e-01
5.962407e-01
6.037044e-01
5.866637e-01
5.962407e-01
5.789650e-01
6.109783e-01
5.962407e-01
6.017323e-01
5.868140e-01
5.962407e-01
5.789650e-01
5.868140e-01
5.693309e-01
6.017323e-01
5.868140e-01
5.904750e-01
5.754001e-01
5.868140e-01
5.693309e-01
5.754001e-01
5.577400e-01
5.904750e-01
5.754001e-01
5.771823e-01
5.619772e-01
5.754001e-01
5.577400e-01
5.619772e-01
5.441742e-01
5.771823e-01
5.619772e-01
5.618319e-01
5.465261e-01
5.619772e-01
5.441742e-01
5.465261e-01
5.286184e-01
5.618319e-01
5.465261e-01
5.444038e-01
5.290298e-01
5.465261e-01
5.286184e-01
5.290298e-01
5.110614e-01
5.444038e-01
5.290298e-01
5.248797e-01
5.094738e-01
5.290298e-01
5.110614e-01
5.094738e-01
4.914958e-01
5.248797e-01
5.094738e-01
5.032432e-01
4.878460e-01
5.094738e-01
4.914958e-01
4.878460e-01
4.699187e-01
5.032432e-01
4.878460e-01
4.794802e-01
4.641366e-01
4.878460e-01
4.699187e-01
4.641366e-01
4.463322e-01
4.794802e-01
4.641366e-01
4.535796e-01
4.383394e-01
4.641366e-01
4.463322e-01
4.383394e-01
4.207462e-01
4.535796e-01
4.383394e-01
4.255375e-01
4.104550e-01
4.383394e-01
4.207462e-01
4.104550e-01
3.931795e-01
4.255375e-01
4.104550e-01
3.953854e-01
3.805139e-01
4.104550e-01
3.931795e-01
3.805139e-01
3.636448e-01
3.953854e-01
3.805139e-01
3.634981e-01
3.488706e-01
3.805139e-01
3.636448e-01
3.488706e-01
3.319692e-01
3.634981e-01
3.488706e-01
3.326207e-01
3.186079e-01
3.488706e-01
3.319692e-01
3.186079e-01
3.025622e-01
3.326207e-01
3.186079e-01
3.038638e-01
2.905624e-01
3.186079e-01
3.025622e-01
2.905624e-01
2.754712e-01
3.038638e-01
2.905624e-01
2.769517e-01
2.644464e-01
2.905624e-01
2.754712e-01
2.644464e-01
2.503555e-01
2.769517e-01
2.644464e-01
2.515667e-01
2.399337e-01
2.644464e-01
2.503555e-01
2.399337e-01
2.268889e-01
2.515667e-01
2.399337e-01
2.274430e-01
2.167407e-01
2.399337e-01
2.268889e-01
2.167407e-01
2.047791e-01
2.274430e-01
2.167407e-01
2.043523e-01
1.946199e-01
2.167407e-01
2.047791e-01
1.946199e-01
1.837671e-01
2.043523e-01
1.946199e-01
1.821011e-01
1.733612e-01
1.946199e-01
1.837671e-01
1.733612e-01
1.636306e-01
1.821011e-01
1.733612e-01
1.605272e-01
1.527892e-01
1.733612e-01
1.636306e-01
1.527892e-01
1.441833e-01
1.605272e-01
1.527892e-01
1.394956e-01
1.327589e-01
1.527892e-01
1.441833e-01
1.327589e-01
1.252720e-01
1.394956e-01
1.327589e-01
1.188940e-01
1.131514e-01
1.327589e-01
1.252720e-01
1.131514e-01
1.067724e-01
1.188940e-01
1.131514e-01
9.862906e-02
9.386963e-02
1.131514e-01
1.067724e-01
9.386963e-02
8.858455e-02
9.862906e-02
9.386963e-02
7.862289e-02
7.483442e-02
9.386963e-02
8.858455e-02
7.483442e-02
7.062835e-02
7.862289e-02
7.483442e-02
5.880992e-02
5.598057e-02
7.483442e-02
7.062835e-02
5.598057e-02
5.283971e-02
5.880992e-02
5.598057e-02
3.913394e-02
3.725374e-02
5.598057e-02
5.283971e-02
3.725374e-02
3.516665e-02
3.913394e-02
3.725374e-02
1.954561e-02
1.860737e-02
3.725374e-02
3.516665e-02
1.860737e-02
1.756593e-02
1.954561e-02
1.860737e-02
0.000000e+00
0.000000e+00
1.860737e-02
1.756593e-02
0.000000e+00
0.000000e+00
</DataArray>
<DataArray type="Float32" Name="V4" format="ascii">
8.500000e-01
9.250000e-01
8.500000e-01
9.250000e-01
9.250000e-01
1.000000e+00