<?xml version="1.0"?>
<VTKFile type="UnstructuredGrid" version="0.1" byte_order="LittleEndian" compressor="vtkZLibDataCompressor">
<UnstructuredGrid>
<Piece NumberOfPoints="504" NumberOfCells="126">
<Points>
<DataArray type="Float32" NumberOfComponents="3" format="ascii">
0.000000e+00 4.172201e-01 0.000000e+00
0.000000e+00 4.406172e-01 0.000000e+00
3.963796e-02 4.172284e-01 0.000000e+00
3.963521e-02 4.406189e-01 0.000000e+00
0.000000e+00 4.406172e-01 0.000000e+00
0.000000e+00 4.681250e-01 0.000000e+00
3.963521e-02 4.406189e-01 0.000000e+00
3.963451e-02 4.681250e-01 0.000000e+00
3.963796e-02 4.172284e-01 0.000000e+00
3.963521e-02 4.406189e-01 0.000000e+00
7.927490e-02 4.172412e-01 0.000000e+00
7.926931e-02 4.406258e-01 0.000000e+00
3.963521e-02 4.406189e-01 0.000000e+00
3.963451e-02 4.681250e-01 0.000000e+00
7.926931e-02 4.406258e-01 0.000000e+00
7.926780e-02 4.681250e-01 0.000000e+00
7.927490e-02 4.172412e-01 0.000000e+00
7.926931e-02 4.406258e-01 0.000000e+00
1.189093e-01 4.172622e-01 0.000000e+00
1.189009e-01 4.406371e-01 0.000000e+00
7.926931e-02 4.406258e-01 0.000000e+00
7.926780e-02 4.681250e-01 0.000000e+00
1.189009e-01 4.406371e-01 0.000000e+00
1.188986e-01 4.681250e-01 0.000000e+00
1.189093e-01 4.172622e-01 0.000000e+00
1.189009e-01 4.406371e-01 0.000000e+00
1.585399e-01 4.172916e-01 0.000000e+00
1.585288e-01 4.406531e-01 0.000000e+00
1.189009e-01 4.406371e-01 0.000000e+00
1.188986e-01 4.681250e-01 0.000000e+00
1.585288e-01 4.406531e-01 0.000000e+00
1.585258e-01 4.681250e-01 0.000000e+00
1.585399e-01 4.172916e-01 0.000000e+00
1.585288e-01 4.406531e-01 0.000000e+00
1.981655e-01 4.173295e-01 0.000000e+00
1.981517e-01 4.406736e-01 0.000000e+00
1.585288e-01 4.406531e-01 0.000000e+00
1.585258e-01 4.681250e-01 0.000000e+00
1.981517e-01 4.406736e-01 0.000000e+00
1.981480e-01 4.681250e-01 0.000000e+00
1.981655e-01 4.173295e-01 0.000000e+00
1.981517e-01 4.406736e-01 0.000000e+00
2.377848e-01 4.173757e-01 0.000000e+00
2.377683e-01 4.406986e-01 0.000000e+00
1.981517e-01 4.406736e-01 0.000000e+00
1.981480e-01 4.681250e-01 0.000000e+00
2.377683e-01 4.406986e-01 0.000000e+00
2.377639e-01 4.681250e-01 0.000000e+00
2.377848e-01 4.173757e-01 0.000000e+00
2.377683e-01 4.406986e-01 0.000000e+00
2.773965e-01 4.174302e-01 0.000000e+00
2.773774e-01 4.407281e-01 0.000000e+00
2.377683e-01 4.406986e-01 0.000000e+00
2.377639e-01 4.681250e-01 0.000000e+00
2.773774e-01 4.407281e-01 0.000000e+00
2.773724e-01 4.681250e-01 0.000000e+00
2.773965e-01 4.174302e-01 0.000000e+00
2.773774e-01 4.407281e-01 0.000000e+00
3.169993e-01 4.174930e-01 0.000000e+00
3.169776e-01 4.407621e-01 0.000000e+00
2.773774e-01 4.407281e-01 0.000000e+00
2.773724e-01 4.681250e-01 0.000000e+00
3.169776e-01 4.407621e-01 0.000000e+00
3.169721e-01 4.681250e-01 0.000000e+00
3.169993e-01 4.174930e-01 0.000000e+00
3.169776e-01 4.407621e-01 0.000000e+00
3.565919e-01 4.175640e-01 0.000000e+00
3.565677e-01 4.408005e-01 0.000000e+00
3.169776e-01 4.407621e-01 0.000000e+00
3.169721e-01 4.681250e-01 0.000000e+00
3.565677e-01 4.408005e-01 0.000000e+00
3.565617e-01 4.681250e-01 0.000000e+00
3.565919e-01 4.175640e-01 0.000000e+00
3.565677e-01 4.408005e-01 0.000000e+00
3.961729e-01 4.176432e-01 0.000000e+00
3.961463e-01 4.408434e-01 0.000000e+00
3.565677e-01 4.408005e-01 0.000000e+00
3.565617e-01 4.681250e-01 0.000000e+00
3.961463e-01 4.408434e-01 0.000000e+00
3.961399e-01 4.681250e-01 0.000000e+00
3.961729e-01 4.176432e-01 0.000000e+00
3.961463e-01 4.408434e-01 0.000000e+00
4.357409e-01 4.177306e-01 0.000000e+00
4.357121e-01 4.408907e-01 0.000000e+00
3.961463e-01 4.408434e-01 0.000000e+00
3.961399e-01 4.681250e-01 0.000000e+00
4.357121e-01 4.408907e-01 0.000000e+00
4.357054e-01 4.681250e-01 0.000000e+00
4.357409e-01 4.177306e-01 0.000000e+00
4.357121e-01 4.408907e-01 0.000000e+00
4.752946e-01 4.178260e-01 0.000000e+00
4.752636e-01 4.409423e-01 0.000000e+00
4.357121e-01 4.408907e-01 0.000000e+00
4.357054e-01 4.681250e-01 0.000000e+00
4.752636e-01 4.409423e-01 0.000000e+00
4.752567e-01 4.681250e-01 0.000000e+00
4.752946e-01 4.178260e-01 0.000000e+00
4.752636e-01 4.409423e-01 0.000000e+00
5.148324e-01 4.179295e-01 0.000000e+00
5.147995e-01 4.409983e-01 0.000000e+00
4.752636e-01 4.409423e-01 0.000000e+00
4.752567e-01 4.681250e-01 0.000000e+00
5.147995e-01 4.409983e-01 0.000000e+00
5.147925e-01 4.681250e-01 0.000000e+00
5.148324e-01 4.179295e-01 0.000000e+00
5.147995e-01 4.409983e-01 0.000000e+00
5.543529e-01 4.180409e-01 0.000000e+00
5.543182e-01 4.410586e-01 0.000000e+00
5.147995e-01 4.409983e-01 0.000000e+00
5.147925e-01 4.681250e-01 0.000000e+00
5.543182e-01 4.410586e-01 0.000000e+00
5.543114e-01 4.681250e-01 0.000000e+00
5.543529e-01 4.180409e-01 0.000000e+00
5.543182e-01 4.410586e-01 0.000000e+00
5.938547e-01 4.181601e-01 0.000000e+00
5.938184e-01 4.411232e-01 0.000000e+00
5.543182e-01 4.410586e-01 0.000000e+00
5.543114e-01 4.681250e-01 0.000000e+00
5.938184e-01 4.411232e-01 0.000000e+00
5.938118e-01 4.681250e-01 0.000000e+00
5.938547e-01 4.181601e-01 0.000000e+00
5.938184e-01 4.411232e-01 0.000000e+00
6.333360e-01 4.182871e-01 0.000000e+00
6.332984e-01 4.411920e-01 0.000000e+00
5.938184e-01 4.411232e-01 0.000000e+00
5.938118e-01 4.681250e-01 0.000000e+00
6.332984e-01 4.411920e-01 0.000000e+00
6.332923e-01 4.681250e-01 0.000000e+00
6.333360e-01 4.182871e-01 0.000000e+00
6.332984e-01 4.411920e-01 0.000000e+00
6.727953e-01 4.184219e-01 0.000000e+00
6.727567e-01 4.412650e-01 0.000000e+00
6.332984e-01 4.411920e-01 0.000000e+00
6.332923e-01 4.681250e-01 0.000000e+00
6.727567e-01 4.412650e-01 0.000000e+00
6.727514e-01 4.681250e-01 0.000000e+00
6.727953e-01 4.184219e-01 0.000000e+00
6.727567e-01 4.412650e-01 0.000000e+00
7.122309e-01 4.185642e-01 0.000000e+00
7.121916e-01 4.413421e-01 0.000000e+00
6.727567e-01 4.412650e-01 0.000000e+00
6.727514e-01 4.681250e-01 0.000000e+00
7.121916e-01 4.413421e-01 0.000000e+00
7.121875e-01 4.681250e-01 0.000000e+00
7.122309e-01 4.185642e-01 0.000000e+00
7.121916e-01 4.413421e-01 0.000000e+00
7.516411e-01 4.187140e-01 0.000000e+00
7.516016e-01 4.414234e-01 0.000000e+00
7.121916e-01 4.413421e-01 0.000000e+00
7.121875e-01 4.681250e-01 0.000000e+00
7.516016e-01 4.414234e-01 0.000000e+00
7.515991e-01 4.681250e-01 0.000000e+00
7.516411e-01 4.187140e-01 0.000000e+00
7.516016e-01 4.414234e-01 0.000000e+00
7.910241e-01 4.188712e-01 0.000000e+00
7.909849e-01 4.415086e-01 0.000000e+00
7.516016e-01 4.414234e-01 0.000000e+00
7.515991e-01 4.681250e-01 0.000000e+00
7.909849e-01 4.415086e-01 0.000000e+00
7.909845e-01 4.681250e-01 0.000000e+00
7.910241e-01 4.188712e-01 0.000000e+00
7.909849e-01 4.415086e-01 0.000000e+00
8.303779e-01 4.190357e-01 0.000000e+00
8.303397e-01 4.415979e-01 0.000000e+00
7.909849e-01 4.415086e-01 0.000000e+00
7.909845e-01 4.681250e-01 0.000000e+00
8.303397e-01 4.415979e-01 0.000000e+00
8.303420e-01 4.681250e-01 0.000000e+00
8.303779e-01 4.190357e-01 0.000000e+00
8.303397e-01 4.415979e-01 0.000000e+00
8.697007e-01 4.192075e-01 0.000000e+00
8.696643e-01 4.416912e-01 0.000000e+00
8.303397e-01 4.415979e-01 0.000000e+00
8.303420e-01 4.681250e-01 0.000000e+00
8.696643e-01 4.416912e-01 0.000000e+00
8.696701e-01 4.681250e-01 0.000000e+00
8.697007e-01 4.192075e-01 0.000000e+00
8.696643e-01 4.416912e-01 0.000000e+00
9.089903e-01 4.193863e-01 0.000000e+00
9.089567e-01 4.417884e-01 0.000000e+00
8.696643e-01 4.416912e-01 0.000000e+00
8.696701e-01 4.681250e-01 0.000000e+00
9.089567e-01 4.417884e-01 0.000000e+00
9.089671e-01 4.681250e-01 0.000000e+00
9.089903e-01 4.193863e-01 0.000000e+00
9.089567e-01 4.417884e-01 0.000000e+00
9.482445e-01 4.195721e-01 0.000000e+00
9.482151e-01 4.418895e-01 0.000000e+00
9.089567e-01 4.417884e-01 0.000000e+00
9.089671e-01 4.681250e-01 0.000000e+00
9.482151e-01 4.418895e-01 0.000000e+00
9.482313e-01 4.681250e-01 0.000000e+00
9.482445e-01 4.195721e-01 0.000000e+00
9.482151e-01 4.418895e-01 0.000000e+00
9.874612e-01 4.197648e-01 0.000000e+00
9.874374e-01 4.419945e-01 0.000000e+00
9.482151e-01 4.418895e-01 0.000000e+00
9.482313e-01 4.681250e-01 0.000000e+00
9.874374e-01 4.419945e-01 0.000000e+00
9.874611e-01 4.681250e-01 0.000000e+00
9.874612e-01 4.197648e-01 0.000000e+00
9.874374e-01 4.419945e-01 0.000000e+00
1.026638e+00 4.199643e-01 0.000000e+00
1.026622e+00 4.421034e-01 0.000000e+00
9.874374e-01 4.419945e-01 0.000000e+00
9.874611e-01 4.681250e-01 0.000000e+00
1.026622e+00 4.421034e-01 0.000000e+00
1.026655e+00 4.681250e-01 0.000000e+00
1.026638e+00 4.199643e-01 0.000000e+00
1.026622e+00 4.421034e-01 0.000000e+00
1.065771e+00 4.201705e-01 0.000000e+00
1.065766e+00 4.422162e-01 0.000000e+00
1.026622e+00 4.421034e-01 0.000000e+00
1.026655e+00 4.681250e-01 0.000000e+00
1.065766e+00 4.422162e-01 0.000000e+00
1.065811e+00 4.681250e-01 0.000000e+00
1.065771e+00 4.201705e-01 0.000000e+00
1.065766e+00 4.422162e-01 0.000000e+00
1.104859e+00 4.203832e-01 0.000000e+00
1.104868e+00 4.423329e-01 0.000000e+00
1.065766e+00 4.422162e-01 0.000000e+00
1.065811e+00 4.681250e-01 0.000000e+00
1.104868e+00 4.423329e-01 0.000000e+00
1.104929e+00 4.681250e-01 0.000000e+00
1.104859e+00 4.203832e-01 0.000000e+00
1.104868e+00 4.423329e-01 0.000000e+00
1.143899e+00 4.206025e-01 0.000000e+00
1.143925e+00 4.424536e-01 0.000000e+00
1.104868e+00 4.423329e-01 0.000000e+00
1.104929e+00 4.681250e-01 0.000000e+00
1.143925e+00 4.424536e-01 0.000000e+00
1.144006e+00 4.681250e-01 0.000000e+00
1.143899e+00 4.206025e-01 0.000000e+00
1.143925e+00 4.424536e-01 0.000000e+00
1.182886e+00 4.208281e-01 0.000000e+00
1.182936e+00 4.425783e-01 0.000000e+00
1.143925e+00 4.424536e-01 0.000000e+00
1.144006e+00 4.681250e-01 0.000000e+00
1.182936e+00 4.425783e-01 0.000000e+00
1.183042e+00 4.681250e-01 0.000000e+00
1.182886e+00 4.208281e-01 0.000000e+00
1.182936e+00 4.425783e-01 0.000000e+00
1.221817e+00 4.210602e-01 0.000000e+00
1.221898e+00 4.427072e-01 0.000000e+00
1.182936e+00 4.425783e-01 0.000000e+00
1.183042e+00 4.681250e-01 0.000000e+00
1.221898e+00 4.427072e-01 0.000000e+00
1.222037e+00 4.681250e-01 0.000000e+00
1.221817e+00 4.210602e-01 0.000000e+00
[...]
<PointData>
<DataArray type="Float32" Name="V1" format="ascii">
2.593998e+02
1.039390e+02
2.594973e+02
1.040365e+02
1.077102e+02
2.942024e+01
1.077502e+02
2.946024e+01
2.595301e+02
1.039775e+02
2.597683e+02
1.042157e+02
1.077843e+02
2.944542e+01
1.078961e+02
2.955724e+01
2.598531e+02
1.041137e+02
2.602431e+02
1.045037e+02
1.079604e+02
2.952345e+01
1.081523e+02
2.971535e+01
2.603763e+02
1.043562e+02
2.609195e+02
1.048993e+02
1.082457e+02
2.966138e+01
1.085173e+02
2.993301e+01
2.611007e+02
1.047052e+02
2.617990e+02
1.054035e+02
1.086406e+02
2.985919e+01
1.089923e+02
3.021092e+01
2.620283e+02
1.051619e+02
2.628840e+02
1.060175e+02
1.091459e+02
3.011733e+01
1.095785e+02
3.054991e+01
2.631615e+02
1.057275e+02
2.641769e+02
1.067429e+02
1.097630e+02
3.043644e+01
1.102775e+02
3.095094e+01
2.645031e+02
1.064035e+02
2.656810e+02
1.075814e+02
1.104935e+02
3.081738e+01
1.110912e+02
3.141513e+01
2.660567e+02
1.071919e+02
2.674002e+02
1.085354e+02
1.113392e+02
3.126120e+01
1.120218e+02
3.194378e+01
2.678261e+02
1.080946e+02
2.693388e+02
1.096073e+02
1.123025e+02
3.176912e+01
1.130718e+02
3.253840e+01
2.698160e+02
1.091142e+02
2.715019e+02
1.108001e+02
1.133859e+02
3.234259e+01
1.142440e+02
3.320068e+01
2.720314e+02
1.102534e+02
2.738951e+02
1.121170e+02
1.145924e+02
3.298322e+01
1.155417e+02
3.393254e+01
2.744782e+02
1.115153e+02
2.765246e+02
1.135617e+02
1.159252e+02
3.369288e+01
1.169684e+02
3.473611e+01
2.771628e+02
1.129035e+02
2.793975e+02
1.151381e+02
1.173881e+02
3.447364e+01
1.185282e+02
3.561379e+01
2.800922e+02
1.144218e+02
2.825212e+02
1.168508e+02
1.189851e+02
3.532783e+01
1.202255e+02
3.656825e+01
2.832743e+02
1.160746e+02
2.859044e+02
1.187047e+02
1.207208e+02
3.625803e+01
1.220652e+02
3.760244e+01
2.867175e+02
1.178665e+02
2.895560e+02
1.207050e+02
1.226002e+02
3.726713e+01
1.240527e+02
3.871962e+01
2.904311e+02
1.198030e+02
2.934861e+02
1.228579e+02
1.246289e+02
3.835834e+01
1.261940e+02
3.992344e+01
2.944253e+02
1.218896e+02
2.977054e+02
1.251696e+02
1.268128e+02
3.953518e+01
1.284955e+02
4.121789e+01
2.987110e+02
1.241328e+02
3.022255e+02
1.276473e+02
1.291587e+02
4.080161e+01
1.309645e+02
4.260744e+01
3.032999e+02
1.265395e+02
3.070591e+02
1.302988e+02
1.316737e+02
4.216199e+01
1.336088e+02
4.409703e+01
3.082045e+02
1.291172e+02
3.122196e+02
1.331323e+02
1.343660e+02
4.362119e+01
1.364370e+02
4.569220e+01
3.134385e+02
1.318744e+02
3.177212e+02
1.361571e+02
1.372441e+02
4.518464e+01
1.394586e+02
4.739910e+01
3.190161e+02
1.348202e+02
3.235791e+02
1.393832e+02
1.403177e+02
4.685844e+01
1.426840e+02
4.922466e+01
3.249524e+02
1.379645e+02
3.298094e+02
1.428214e+02
1.435974e+02
4.864942e+01
1.461247e+02
5.117673e+01
3.312633e+02
1.413184e+02
3.364287e+02
1.464838e+02
1.470946e+02
5.056534e+01
1.497934e+02
5.326420e+01
3.379651e+02
1.448942e+02
3.434542e+02
1.503833e+02
1.508220e+02
5.261505e+01
1.537042e+02
5.549724e+01
3.450745e+02
1.487051e+02
3.509036e+02
1.545341e+02
1.547939e+02
5.480868e+01
1.578728e+02
5.788762e+01
3.526084e+02
1.527661e+02
3.587941e+02
1.589518e+02
1.590256e+02
5.715796e+01
1.623167e+02
6.044902e+01
3.605830e+02
1.570939e+02
3.671426e+02
1.636535e+02
1.635346e+02
5.967660e+01
1.670556e+02
6.319755e+01
3.690133e+02
1.617068e+02
3.759643e+02
1.686578e+02
1.683402e+02
6.238079e+01
1.721118e+02
6.615234e+01
3.779124e+02
1.666259e+02
3.852719e+02
1.739854e+02
1.734642e+02
6.528982e+01
1.775107e+02
6.933641e+01
3.872898e+02
1.718748e+02
3.950739e+02
1.796589e+02
1.789310e+02
6.842697e+01
1.832818e+02
7.277777e+01
3.971494e+02
1.774804e+02
4.053723e+02
1.857033e+02
1.847687e+02
7.182068e+01
1.894589e+02
7.651089e+01
4.074873e+02
1.834740e+02
4.161598e+02
1.921465e+02
1.910092e+02
7.550609e+01
1.960819e+02
8.057879e+01
4.182881e+02
1.898916e+02
4.274153e+02
1.990188e+02
1.976895e+02
7.952724e+01
2.031981e+02
8.503583e+01
4.295199e+02
1.967754e+02
4.390985e+02
2.063540e+02
2.048524e+02
8.394000e+01
2.108640e+02
8.995161e+01
4.411283e+02
2.041752e+02
4.511418e+02
2.141887e+02
2.125478e+02
8.881644e+01
2.191480e+02
9.541660e+01
4.530278e+02
2.121493e+02
4.634408e+02
2.225622e+02
2.208336e+02
9.425098e+01
2.281329e+02
1.015503e+02
4.650913e+02
2.207661e+02
4.758407e+02
2.315156e+02
2.297755e+02
1.003700e+02
2.379192e+02
1.085137e+02
4.771357e+02
2.301050e+02
4.881208e+02
2.410902e+02
2.394442e+02
1.073473e+02
2.486262e+02
1.165293e+02
4.889026e+02
2.402582e+02
4.999744e+02
2.513300e+02
2.499015e+02
1.154315e+02
2.603871e+02
1.259171e+02
5.000223e+02
2.513457e+02
5.109840e+02
2.623075e+02
2.611554e+02
1.250039e+02
2.733235e+02
1.371720e+02
5.099116e+02
2.636038e+02
5.205879e+02
2.742801e+02
2.730199e+02
1.367459e+02
2.874709e+02
1.511969e+02
5.173495e+02
2.778498e+02
5.280904e+02
2.885906e+02
2.847160e+02
1.523337e+02
3.027814e+02
1.703991e+02
5.203129e+02
2.970130e+02
5.332838e+02
3.099839e+02
2.952607e+02
1.794086e+02
3.183395e+02
2.024874e+02
5.267594e+02
3.166664e+02
5.390533e+02
3.289603e+02
3.138560e+02
2.044601e+02
3.291870e+02
2.197911e+02
5.374704e+02
3.304754e+02
5.516200e+02
3.446250e+02
3.290211e+02
2.197437e+02
3.433105e+02
2.340330e+02
5.523476e+02
3.437207e+02
5.679177e+02
3.592908e+02
3.443183e+02
2.333107e+02
3.578399e+02
2.468324e+02
5.699244e+02
3.570928e+02
5.863371e+02
3.735055e+02
3.595813e+02
2.456415e+02
3.723442e+02
2.584044e+02
5.891028e+02
3.705062e+02
6.058449e+02
3.872483e+02
3.745213e+02
2.569238e+02
3.865104e+02
2.689130e+02
6.090558e+02
3.837651e+02
6.256875e+02
4.003968e+02
3.889471e+02
2.672606e+02
4.001370e+02
2.784506e+02
6.291244e+02
3.966596e+02
6.452730e+02
4.128082e+02
4.026965e+02
2.767180e+02
4.130552e+02
2.870767e+02
6.487714e+02
4.089962e+02
6.641247e+02
4.243495e+02
4.156290e+02
2.853375e+02
4.251215e+02
2.948301e+02
6.675558e+02
4.206058e+02
6.818551e+02
4.349050e+02
4.276225e+02
2.931433e+02
4.362142e+02
3.017350e+02
6.851154e+02
4.313450e+02
6.981481e+02
4.443776e+02
4.385728e+02
3.001476e+02
4.462309e+02
3.078057e+02
7.011543e+02
4.410942e+02
7.127479e+02
4.526878e+02
4.483921e+02
3.063546e+02
4.550873e+02
3.130498e+02
7.154329e+02
4.497552e+02
7.254489e+02
4.597713e+02
4.570074e+02
3.117634e+02
4.627144e+02
3.174704e+02
7.277593e+02
4.572484e+02
7.360889e+02
4.655779e+02
4.643596e+02
3.163705e+02
4.690571e+02
3.210679e+02
7.379831e+02
4.635100e+02
7.445424e+02
4.700693e+02
4.704014e+02
3.201709e+02
4.740723e+02
3.238417e+02
7.459889e+02
4.684905e+02
7.507161e+02
4.732177e+02
4.750964e+02
3.231595e+02
4.777276e+02
3.257907e+02
7.516925e+02
4.721522e+02
7.545453e+02
4.750050e+02
4.784176e+02
3.253315e+02
4.799999e+02
3.269138e+02
7.550371e+02
4.744685e+02
7.559907e+02
4.754221e+02
4.803471e+02
3.266830e+02
4.808751e+02
3.272110e+02
</DataArray>
<DataArray type="Float32" Name="V2" format="ascii">
4.172201e-01
4.406172e-01
4.180870e-01
4.414701e-01
4.406172e-01
4.681250e-01
4.414701e-01
4.689677e-01
4.180870e-01
4.414701e-01
4.206740e-01
4.440293e-01
4.414701e-01
4.689677e-01
4.440293e-01
4.714943e-01
4.206740e-01
4.440293e-01
4.249816e-01
4.482905e-01
4.440293e-01
4.714943e-01
4.482905e-01
4.757014e-01
4.249816e-01
4.482905e-01
4.310035e-01
4.542478e-01
4.482905e-01
4.757014e-01
4.542478e-01
4.815829e-01
4.310035e-01
4.542478e-01
4.387313e-01
4.618925e-01
4.542478e-01
4.815829e-01
4.618925e-01
4.891305e-01
4.387313e-01
4.618925e-01
4.481539e-01
4.712139e-01
4.618925e-01
4.891305e-01
4.712139e-01
4.983333e-01
4.481539e-01
4.712139e-01
4.592579e-01
4.821985e-01
4.712139e-01
4.983333e-01
4.821985e-01
5.091784e-01
4.592579e-01
4.821985e-01
4.720273e-01
4.948307e-01
4.821985e-01
5.091784e-01
4.948307e-01
5.216501e-01
4.720273e-01
4.948307e-01
4.864440e-01
5.090925e-01
4.948307e-01
5.216501e-01
5.090925e-01
5.357306e-01
4.864440e-01
5.090925e-01
5.024872e-01
5.249634e-01
5.090925e-01
5.357306e-01
5.249634e-01
5.513998e-01
5.024872e-01
5.249634e-01
5.201339e-01
5.424205e-01
5.249634e-01
5.513998e-01
5.424205e-01
5.686352e-01
5.201339e-01
5.424205e-01
5.393587e-01
5.614389e-01
5.424205e-01
5.686352e-01
5.614389e-01
5.874119e-01
5.393587e-01
5.614389e-01
5.601340e-01
5.819912e-01
5.614389e-01
5.874119e-01
5.819912e-01
6.077031e-01
5.601340e-01
5.819912e-01
5.824298e-01
6.040476e-01
5.819912e-01
6.077031e-01
6.040476e-01
6.294793e-01
5.824298e-01
6.040476e-01
6.062137e-01
6.275762e-01
6.040476e-01
6.294793e-01
6.275762e-01
6.527091e-01
6.062137e-01
6.275762e-01
6.314514e-01
6.525431e-01
6.275762e-01
6.527091e-01
6.525431e-01
6.773589e-01
6.314514e-01
6.525431e-01
6.581060e-01
6.789118e-01
6.525431e-01
6.773589e-01
6.789118e-01
7.033927e-01
6.581060e-01
6.789118e-01
6.861387e-01
7.066439e-01
6.789118e-01
7.033927e-01
7.066439e-01
7.307727e-01
6.861387e-01
7.066439e-01
7.155085e-01
7.356988e-01
7.066439e-01
7.307727e-01
7.356988e-01
7.594588e-01
7.155085e-01
7.356988e-01
7.461721e-01
7.660341e-01
7.356988e-01
7.594588e-01
7.660341e-01
7.894090e-01
7.461721e-01
7.660341e-01
7.780846e-01
7.976049e-01
7.660341e-01
7.894090e-01
7.976049e-01
8.205792e-01
7.780846e-01
7.976049e-01
8.111985e-01
8.303646e-01
7.976049e-01
8.205792e-01
8.303646e-01
8.529234e-01
8.111985e-01
8.303646e-01
8.454647e-01
8.642648e-01
8.303646e-01
8.529234e-01
8.642648e-01
8.863939e-01
8.454647e-01
8.642648e-01
8.808319e-01
8.992548e-01
8.642648e-01
8.863939e-01
8.992548e-01
9.209408e-01
8.808319e-01
8.992548e-01
9.172472e-01
9.352825e-01
8.992548e-01
9.209408e-01
9.352825e-01
9.565127e-01
9.172472e-01
9.352825e-01
9.546555e-01
9.722937e-01
9.352825e-01
9.565127e-01
9.722937e-01
9.930564e-01
9.546555e-01
9.722937e-01
9.930001e-01
1.010233e+00
9.722937e-01
9.930564e-01
1.010233e+00
1.030517e+00
9.930001e-01
1.010233e+00
1.032222e+00
1.049042e+00
1.010233e+00
1.030517e+00
1.049042e+00
1.068839e+00
1.032222e+00
1.049042e+00
1.072261e+00
1.088663e+00
1.049042e+00
1.068839e+00
1.088663e+00
1.107964e+00
1.072261e+00
1.088663e+00
1.113055e+00
1.129034e+00
1.088663e+00
1.107964e+00
1.129034e+00
1.147833e+00
1.113055e+00
1.129034e+00
1.154540e+00
1.170094e+00
1.129034e+00
1.147833e+00
1.170094e+00
1.188386e+00
1.154540e+00
1.170094e+00
1.196650e+00
1.211779e+00
1.170094e+00
1.188386e+00
1.211779e+00
1.229563e+00
1.196650e+00
1.211779e+00
1.239318e+00
1.254025e+00
1.211779e+00
1.229563e+00
1.254025e+00
1.271301e+00
1.239318e+00
1.254025e+00
1.282472e+00
1.296767e+00
1.254025e+00
1.271301e+00
1.296767e+00
1.313539e+00
1.282472e+00
1.296767e+00
1.326043e+00
1.339936e+00
1.296767e+00
1.313539e+00
1.339936e+00
1.356214e+00
1.326043e+00
1.339936e+00
1.369954e+00
1.383467e+00
1.339936e+00
1.356214e+00
1.383467e+00
1.399265e+00
1.369954e+00
1.383467e+00
1.414131e+00
1.427290e+00
1.383467e+00
1.399265e+00
1.427290e+00
1.442632e+00
1.414131e+00
1.427290e+00
1.458492e+00
1.471335e+00
1.427290e+00
1.442632e+00
1.471335e+00
1.486255e+00
1.458492e+00
1.471335e+00
1.502954e+00
1.515535e+00
1.471335e+00
1.486255e+00
1.515535e+00
1.530079e+00
1.502954e+00
1.515535e+00
1.547428e+00
1.559817e+00
1.515535e+00
1.530079e+00
1.559817e+00
1.574053e+00
1.547428e+00
1.559817e+00
1.591820e+00
1.604111e+00
1.559817e+00
1.574053e+00
1.604111e+00
1.618133e+00
1.591820e+00
1.604111e+00
1.636028e+00
1.648343e+00
1.604111e+00
1.618133e+00
1.648343e+00
1.662284e+00
1.636028e+00
1.648343e+00
1.679934e+00
1.692433e+00
1.648343e+00
1.662284e+00
1.692433e+00
1.706493e+00
1.679934e+00
1.692433e+00
1.723388e+00
1.736279e+00
1.692433e+00
1.706493e+00
1.736279e+00
1.750764e+00
1.723388e+00
1.736279e+00
1.766161e+00
1.779673e+00
1.736279e+00
1.750764e+00
1.779673e+00
1.795032e+00
1.766161e+00
1.779673e+00
1.807788e+00
1.821775e+00
1.779673e+00
1.795032e+00
1.821775e+00
1.837598e+00
1.807788e+00
1.821775e+00
1.846937e+00
1.861136e+00
1.821775e+00
1.837598e+00
1.861136e+00
1.877142e+00
1.846937e+00
1.861136e+00
1.883254e+00
1.897879e+00
1.861136e+00
1.877142e+00
1.897879e+00
1.914361e+00
1.883254e+00
1.897879e+00
1.916777e+00
1.931959e+00
1.897879e+00
1.914361e+00
1.931959e+00
1.949026e+00
1.916777e+00
1.931959e+00
1.947574e+00
1.963348e+00
1.931959e+00
1.949026e+00
1.963348e+00
1.981039e+00
1.947574e+00
1.963348e+00
1.975709e+00
1.992061e+00
1.963348e+00
1.981039e+00
1.992061e+00
2.010367e+00
1.975709e+00
1.992061e+00
2.001253e+00
2.018140e+00
1.992061e+00
2.010367e+00
2.018140e+00
2.037023e+00
2.001253e+00
2.018140e+00
2.024278e+00
2.041644e+00
2.018140e+00
2.037023e+00
2.041644e+00
2.061053e+00
2.024278e+00
2.041644e+00
2.044858e+00
2.062644e+00
2.041644e+00
2.061053e+00
2.062644e+00
2.082516e+00
2.044858e+00
2.062644e+00
2.063064e+00
2.081209e+00
2.062644e+00
2.082516e+00
2.081209e+00
2.101482e+00
2.063064e+00
2.081209e+00
2.078963e+00
2.097409e+00
2.081209e+00
2.101482e+00
2.097409e+00
2.118023e+00
2.078963e+00
2.097409e+00
2.092615e+00
2.111310e+00
2.097409e+00
2.118023e+00
2.111310e+00
2.132206e+00
2.092615e+00
2.111310e+00
2.104073e+00
2.122969e+00
2.111310e+00
2.132206e+00
2.122969e+00
2.144095e+00
2.104073e+00
2.122969e+00
2.113384e+00
2.132437e+00
2.122969e+00
2.144095e+00
2.132437e+00
2.153744e+00
2.113384e+00
2.132437e+00
2.120586e+00
2.139757e+00
2.132437e+00
2.153744e+00
2.139757e+00
2.161200e+00
2.120586e+00
2.139757e+00
2.125709e+00
2.144961e+00
2.139757e+00
2.161200e+00
2.144961e+00
2.166500e+00
2.125709e+00
2.144961e+00
2.128774e+00
2.148075e+00
2.144961e+00
2.166500e+00
2.148075e+00
2.169669e+00
2.128774e+00
2.148075e+00
2.129795e+00
2.149111e+00
2.148075e+00
2.169669e+00
2.149111e+00
2.170723e+00
</DataArray>
<DataArray type="Float32" Name="V3" format="ascii">
0.000000e+00
0.000000e+00
2.922385e-02
2.863795e-02
0.000000e+00
0.000000e+00
2.863795e-02
2.795151e-02
2.922385e-02
2.863795e-02
5.837859e-02
5.720739e-02
2.863795e-02
2.795151e-02
5.720739e-02
5.583516e-02
5.837859e-02
5.720739e-02
8.739476e-02
8.563959e-02
5.720739e-02
5.583516e-02
8.563959e-02
8.358315e-02
8.739476e-02
8.563959e-02
1.162033e-01
1.138661e-01
8.563959e-02
8.358315e-02
1.138661e-01
1.111278e-01
1.162033e-01
1.138661e-01
1.447353e-01
1.418189e-01
1.138661e-01
1.111278e-01
1.418189e-01
1.384018e-01
1.447353e-01
1.418189e-01
1.729224e-01
1.694299e-01
1.418189e-01
1.384018e-01
1.694299e-01
1.653379e-01
1.729224e-01
1.694299e-01
2.006963e-01
1.966318e-01
1.694299e-01
1.653379e-01
1.966318e-01
1.918694e-01
2.006963e-01
1.966318e-01
2.279894e-01
2.233574e-01
1.966318e-01
1.918694e-01
2.233574e-01
2.179301e-01
2.279894e-01
2.233574e-01
2.547347e-01
2.495405e-01
2.233574e-01
2.179301e-01
2.495405e-01
2.434543e-01
2.547347e-01
2.495405e-01
2.808656e-01
2.751151e-01
2.495405e-01
2.434543e-01
2.751151e-01
2.683769e-01
2.808656e-01
2.751151e-01
3.063164e-01
3.000160e-01
2.751151e-01
2.683769e-01
3.000160e-01
2.926334e-01
3.063164e-01
3.000160e-01
3.310222e-01
3.241790e-01
3.000160e-01
2.926334e-01
3.241790e-01
3.161601e-01
3.310222e-01
3.241790e-01
3.549188e-01
3.475404e-01
3.241790e-01
3.161601e-01
3.475404e-01
3.388943e-01
3.549188e-01
3.475404e-01
3.779430e-01
3.700378e-01
3.475404e-01
3.388943e-01
3.700378e-01
3.607741e-01
3.779430e-01
3.700378e-01
4.000327e-01
3.916095e-01
3.700378e-01
3.607741e-01
3.916095e-01
3.817385e-01
4.000327e-01
3.916095e-01
4.211268e-01
4.121950e-01
3.916095e-01
3.817385e-01
4.121950e-01
4.017278e-01
4.211268e-01
4.121950e-01
4.411653e-01
4.317350e-01
4.121950e-01
4.017278e-01
4.317350e-01
4.206831e-01
4.411653e-01
4.317350e-01
4.600897e-01
4.501713e-01
4.317350e-01
4.206831e-01
4.501713e-01
4.385470e-01
4.600897e-01
4.501713e-01
4.778424e-01
4.674470e-01
4.501713e-01
4.385470e-01
4.674470e-01
4.552632e-01
4.778424e-01
4.674470e-01
4.943676e-01
4.835067e-01
4.674470e-01
4.552632e-01
4.835067e-01
4.707770e-01
4.943676e-01
4.835067e-01
5.096105e-01
4.982963e-01
4.835067e-01
4.707770e-01
4.982963e-01
4.850348e-01
5.096105e-01
4.982963e-01
5.235181e-01
5.117632e-01
4.982963e-01
4.850348e-01
5.117632e-01
4.979847e-01
5.235181e-01
5.117632e-01
5.360389e-01
5.238565e-01
5.117632e-01
4.979847e-01
5.238565e-01
5.095764e-01
5.360389e-01
5.238565e-01
5.471230e-01
5.345268e-01
5.238565e-01
5.095764e-01
5.345268e-01
5.197612e-01
5.471230e-01
5.345268e-01
5.567222e-01
5.437265e-01
5.345268e-01
5.197612e-01
5.437265e-01
5.284921e-01
5.567222e-01
5.437265e-01
5.647899e-01
5.514096e-01
5.437265e-01
5.284921e-01
5.514096e-01
5.357240e-01
5.647899e-01
5.514096e-01
5.712816e-01
5.575321e-01
5.514096e-01
5.357240e-01
5.575321e-01
5.414135e-01
5.712816e-01
5.575321e-01
5.761543e-01
5.620518e-01
5.575321e-01
5.414135e-01
5.620518e-01
5.455194e-01
5.761543e-01
5.620518e-01
5.793670e-01
5.649285e-01
5.620518e-01
5.455194e-01
5.649285e-01
5.480024e-01
5.793670e-01
5.649285e-01
5.808808e-01
5.661240e-01
5.649285e-01
5.480024e-01
5.661240e-01
5.488254e-01
5.808808e-01
5.661240e-01
5.806584e-01
5.656020e-01
5.661240e-01
5.488254e-01
5.656020e-01
5.479535e-01
5.806584e-01
5.656020e-01
5.786646e-01
5.633286e-01
5.656020e-01
5.479535e-01
5.633286e-01
5.453542e-01
5.786646e-01
5.633286e-01
5.748662e-01
5.592719e-01
5.633286e-01
5.453542e-01
5.592719e-01
5.409975e-01
5.748662e-01
5.592719e-01
5.692320e-01
5.534021e-01
5.592719e-01
5.409975e-01
5.534021e-01
5.348559e-01
5.692320e-01
5.534021e-01
5.617324e-01
5.456917e-01
5.534021e-01
5.348559e-01
5.456917e-01
5.269047e-01
5.617324e-01
5.456917e-01
5.523400e-01
5.361155e-01
5.456917e-01
5.269047e-01
5.361155e-01
5.171222e-01
5.523400e-01
5.361155e-01
5.410291e-01
5.246505e-01
5.361155e-01
5.171222e-01
5.246505e-01
5.054897e-01
5.410291e-01
5.246505e-01
5.277757e-01
5.112761e-01
5.246505e-01
5.054897e-01
5.112761e-01
4.919917e-01
5.277757e-01
5.112761e-01
5.125576e-01
4.959737e-01
5.112761e-01
4.919917e-01
4.959737e-01
4.766166e-01
5.125576e-01
4.959737e-01
4.953539e-01
4.787270e-01
4.959737e-01
4.766166e-01
4.787270e-01
4.593567e-01
4.953539e-01
4.787270e-01
4.761457e-01
4.595216e-01
4.787270e-01
4.593567e-01
4.595216e-01
4.402089e-01
4.761457e-01
4.595216e-01
4.549158e-01
4.383457e-01
4.595216e-01
4.402089e-01
4.383457e-01
4.191761e-01
4.549158e-01
4.383457e-01
4.316511e-01
4.151912e-01
4.383457e-01
4.191761e-01
4.151912e-01
3.962690e-01
4.316511e-01
4.151912e-01
4.063505e-01
3.900616e-01
4.151912e-01
3.962690e-01
3.900616e-01
3.715054e-01
4.063505e-01
3.900616e-01
3.790742e-01
3.630101e-01
3.900616e-01
3.715054e-01
3.630101e-01
3.448623e-01
3.790742e-01
3.630101e-01
3.505019e-01
3.347307e-01
3.630101e-01
3.448623e-01
3.347307e-01
3.166154e-01
3.505019e-01
3.347307e-01
3.231463e-01
3.080143e-01
3.347307e-01
3.166154e-01
3.080143e-01
2.907960e-01
3.231463e-01
3.080143e-01
2.975067e-01
2.831172e-01
3.080143e-01
2.907960e-01
2.831172e-01
2.668984e-01
2.975067e-01
2.831172e-01
2.733510e-01
2.597993e-01
2.831172e-01
2.668984e-01
2.597993e-01
2.446271e-01
2.733510e-01
2.597993e-01
2.504259e-01
2.377888e-01
2.597993e-01
2.446271e-01
2.377888e-01
2.237045e-01
2.504259e-01
2.377888e-01
2.285165e-01
2.168486e-01
2.377888e-01
2.237045e-01
2.168486e-01
2.038832e-01
2.285165e-01
2.168486e-01
2.074382e-01
1.967732e-01
2.168486e-01
2.038832e-01
1.967732e-01
1.849457e-01
2.074382e-01
1.967732e-01
1.870351e-01
1.773895e-01
1.967732e-01
1.849457e-01
1.773895e-01
1.667065e-01
1.870351e-01
1.773895e-01
1.671764e-01
1.585535e-01
1.773895e-01
1.667065e-01
1.585535e-01
1.490112e-01
1.671764e-01
1.585535e-01
1.477540e-01
1.401472e-01
1.585535e-01
1.490112e-01
1.401472e-01
1.317339e-01
1.477540e-01
1.401472e-01
1.286780e-01
1.220746e-01
1.401472e-01
1.317339e-01
1.220746e-01
1.147735e-01
1.286780e-01
1.220746e-01
1.098747e-01
1.042585e-01
1.220746e-01
1.147735e-01
1.042585e-01
9.804989e-02
1.098747e-01
1.042585e-01
9.128325e-02
8.663663e-02
1.042585e-01
9.804989e-02
8.663663e-02
8.150038e-02
9.128325e-02
8.663663e-02
7.285339e-02
6.915949e-02
8.663663e-02
8.150038e-02
6.915949e-02
6.507644e-02
7.285339e-02
6.915949e-02
5.454332e-02
5.178716e-02
6.915949e-02
6.507644e-02
5.178716e-02
4.874063e-02
5.454332e-02
5.178716e-02
3.631767e-02
3.448725e-02
5.178716e-02
4.874063e-02
3.448725e-02
3.246394e-02
3.631767e-02
3.448725e-02
1.814578e-02
1.723271e-02
3.448725e-02
3.246394e-02
1.723271e-02
1.622341e-02
1.814578e-02
1.723271e-02
0.000000e+00
0.000000e+00
1.723271e-02
1.622341e-02
0.000000e+00
0.000000e+00
</DataArray>
<DataArray type="Float32" Name="V4" format="ascii">
8.500000e-01
9.250000e-01
8.500000e-01
9.250000e-01
9.250000e-01
1.000000e+00