<?xml version="1.0"?>
<VTKFile type="UnstructuredGrid" version="0.1" byte_order="LittleEndian" compressor="vtkZLibDataCompressor">
<UnstructuredGrid>
<Piece NumberOfPoints="504" NumberOfCells="126">
<Points>
<DataArray type="Float32" NumberOfComponents="3" format="ascii">
0.000000e+00 4.499389e-01 0.000000e+00
0.000000e+00 4.778262e-01 0.000000e+00
3.630642e-02 4.499470e-01 0.000000e+00
3.630000e-02 4.778287e-01 0.000000e+00
0.000000e+00 4.778262e-01 0.000000e+00
0.000000e+00 5.106250e-01 0.000000e+00
3.630000e-02 4.778287e-01 0.000000e+00
3.629661e-02 5.106250e-01 0.000000e+00
3.630642e-02 4.499470e-01 0.000000e+00
3.630000e-02 4.778287e-01 0.000000e+00
7.261186e-02 4.499620e-01 0.000000e+00
7.259893e-02 4.778368e-01 0.000000e+00
3.630000e-02 4.778287e-01 0.000000e+00
3.629661e-02 5.106250e-01 0.000000e+00
7.259893e-02 4.778368e-01 0.000000e+00
7.259207e-02 5.106250e-01 0.000000e+00
7.261186e-02 4.499620e-01 0.000000e+00
7.259893e-02 4.778368e-01 0.000000e+00
1.089149e-01 4.499870e-01 0.000000e+00
1.088955e-01 4.778504e-01 0.000000e+00
7.259893e-02 4.778368e-01 0.000000e+00
7.259207e-02 5.106250e-01 0.000000e+00
1.088955e-01 4.778504e-01 0.000000e+00
1.088853e-01 5.106250e-01 0.000000e+00
1.089149e-01 4.499870e-01 0.000000e+00
1.088955e-01 4.778504e-01 0.000000e+00
1.452144e-01 4.500219e-01 0.000000e+00
1.451887e-01 4.778693e-01 0.000000e+00
1.088955e-01 4.778504e-01 0.000000e+00
1.088853e-01 5.106250e-01 0.000000e+00
1.451887e-01 4.778693e-01 0.000000e+00
1.451750e-01 5.106250e-01 0.000000e+00
1.452144e-01 4.500219e-01 0.000000e+00
1.451887e-01 4.778693e-01 0.000000e+00
1.815093e-01 4.500669e-01 0.000000e+00
1.814772e-01 4.778937e-01 0.000000e+00
1.451887e-01 4.778693e-01 0.000000e+00
1.451750e-01 5.106250e-01 0.000000e+00
1.814772e-01 4.778937e-01 0.000000e+00
1.814602e-01 5.106250e-01 0.000000e+00
1.815093e-01 4.500669e-01 0.000000e+00
1.814772e-01 4.778937e-01 0.000000e+00
2.177981e-01 4.501217e-01 0.000000e+00
2.177598e-01 4.779234e-01 0.000000e+00
1.814772e-01 4.778937e-01 0.000000e+00
1.814602e-01 5.106250e-01 0.000000e+00
2.177598e-01 4.779234e-01 0.000000e+00
2.177396e-01 5.106250e-01 0.000000e+00
2.177981e-01 4.501217e-01 0.000000e+00
2.177598e-01 4.779234e-01 0.000000e+00
2.540799e-01 4.501864e-01 0.000000e+00
2.540355e-01 4.779584e-01 0.000000e+00
2.177598e-01 4.779234e-01 0.000000e+00
2.177396e-01 5.106250e-01 0.000000e+00
2.540355e-01 4.779584e-01 0.000000e+00
2.540121e-01 5.106250e-01 0.000000e+00
2.540799e-01 4.501864e-01 0.000000e+00
2.540355e-01 4.779584e-01 0.000000e+00
2.903533e-01 4.502610e-01 0.000000e+00
2.903029e-01 4.779988e-01 0.000000e+00
2.540355e-01 4.779584e-01 0.000000e+00
2.540121e-01 5.106250e-01 0.000000e+00
2.903029e-01 4.779988e-01 0.000000e+00
2.902765e-01 5.106250e-01 0.000000e+00
2.903533e-01 4.502610e-01 0.000000e+00
2.903029e-01 4.779988e-01 0.000000e+00
3.266171e-01 4.503453e-01 0.000000e+00
3.265609e-01 4.780445e-01 0.000000e+00
2.903029e-01 4.779988e-01 0.000000e+00
2.902765e-01 5.106250e-01 0.000000e+00
3.265609e-01 4.780445e-01 0.000000e+00
3.265316e-01 5.106250e-01 0.000000e+00
3.266171e-01 4.503453e-01 0.000000e+00
3.265609e-01 4.780445e-01 0.000000e+00
3.628700e-01 4.504393e-01 0.000000e+00
3.628081e-01 4.780954e-01 0.000000e+00
3.265609e-01 4.780445e-01 0.000000e+00
3.265316e-01 5.106250e-01 0.000000e+00
3.628081e-01 4.780954e-01 0.000000e+00
3.627761e-01 5.106250e-01 0.000000e+00
3.628700e-01 4.504393e-01 0.000000e+00
3.628081e-01 4.780954e-01 0.000000e+00
3.991106e-01 4.505430e-01 0.000000e+00
3.990433e-01 4.781516e-01 0.000000e+00
3.628081e-01 4.780954e-01 0.000000e+00
3.627761e-01 5.106250e-01 0.000000e+00
3.990433e-01 4.781516e-01 0.000000e+00
3.990088e-01 5.106250e-01 0.000000e+00
3.991106e-01 4.505430e-01 0.000000e+00
3.990433e-01 4.781516e-01 0.000000e+00
4.353377e-01 4.506562e-01 0.000000e+00
4.352653e-01 4.782130e-01 0.000000e+00
3.990433e-01 4.781516e-01 0.000000e+00
3.990088e-01 5.106250e-01 0.000000e+00
4.352653e-01 4.782130e-01 0.000000e+00
4.352284e-01 5.106250e-01 0.000000e+00
4.353377e-01 4.506562e-01 0.000000e+00
4.352653e-01 4.782130e-01 0.000000e+00
4.715498e-01 4.507789e-01 0.000000e+00
4.714726e-01 4.782795e-01 0.000000e+00
4.352653e-01 4.782130e-01 0.000000e+00
4.352284e-01 5.106250e-01 0.000000e+00
4.714726e-01 4.782795e-01 0.000000e+00
4.714337e-01 5.106250e-01 0.000000e+00
4.715498e-01 4.507789e-01 0.000000e+00
4.714726e-01 4.782795e-01 0.000000e+00
5.077455e-01 4.509110e-01 0.000000e+00
5.076639e-01 4.783512e-01 0.000000e+00
4.714726e-01 4.782795e-01 0.000000e+00
4.714337e-01 5.106250e-01 0.000000e+00
5.076639e-01 4.783512e-01 0.000000e+00
5.076233e-01 5.106250e-01 0.000000e+00
5.077455e-01 4.509110e-01 0.000000e+00
5.076639e-01 4.783512e-01 0.000000e+00
5.439234e-01 4.510523e-01 0.000000e+00
5.438377e-01 4.784279e-01 0.000000e+00
5.076639e-01 4.783512e-01 0.000000e+00
5.076233e-01 5.106250e-01 0.000000e+00
5.438377e-01 4.784279e-01 0.000000e+00
5.437958e-01 5.106250e-01 0.000000e+00
5.439234e-01 4.510523e-01 0.000000e+00
5.438377e-01 4.784279e-01 0.000000e+00
5.800818e-01 4.512029e-01 0.000000e+00
5.799927e-01 4.785096e-01 0.000000e+00
5.438377e-01 4.784279e-01 0.000000e+00
5.437958e-01 5.106250e-01 0.000000e+00
5.799927e-01 4.785096e-01 0.000000e+00
5.799501e-01 5.106250e-01 0.000000e+00
5.800818e-01 4.512029e-01 0.000000e+00
5.799927e-01 4.785096e-01 0.000000e+00
6.162193e-01 4.513625e-01 0.000000e+00
6.161274e-01 4.785964e-01 0.000000e+00
5.799927e-01 4.785096e-01 0.000000e+00
5.799501e-01 5.106250e-01 0.000000e+00
6.161274e-01 4.785964e-01 0.000000e+00
6.160846e-01 5.106250e-01 0.000000e+00
6.162193e-01 4.513625e-01 0.000000e+00
6.161274e-01 4.785964e-01 0.000000e+00
6.523341e-01 4.515312e-01 0.000000e+00
6.522402e-01 4.786880e-01 0.000000e+00
6.161274e-01 4.785964e-01 0.000000e+00
6.160846e-01 5.106250e-01 0.000000e+00
6.522402e-01 4.786880e-01 0.000000e+00
6.521980e-01 5.106250e-01 0.000000e+00
6.523341e-01 4.515312e-01 0.000000e+00
6.522402e-01 4.786880e-01 0.000000e+00
6.884244e-01 4.517087e-01 0.000000e+00
6.883296e-01 4.787846e-01 0.000000e+00
6.522402e-01 4.786880e-01 0.000000e+00
6.521980e-01 5.106250e-01 0.000000e+00
6.883296e-01 4.787846e-01 0.000000e+00
6.882889e-01 5.106250e-01 0.000000e+00
6.884244e-01 4.517087e-01 0.000000e+00
6.883296e-01 4.787846e-01 0.000000e+00
7.244885e-01 4.518949e-01 0.000000e+00
7.243939e-01 4.788861e-01 0.000000e+00
6.883296e-01 4.787846e-01 0.000000e+00
6.882889e-01 5.106250e-01 0.000000e+00
7.243939e-01 4.788861e-01 0.000000e+00
7.243560e-01 5.106250e-01 0.000000e+00
7.244885e-01 4.518949e-01 0.000000e+00
7.243939e-01 4.788861e-01 0.000000e+00
7.605243e-01 4.520898e-01 0.000000e+00
7.604316e-01 4.789925e-01 0.000000e+00
7.243939e-01 4.788861e-01 0.000000e+00
7.243560e-01 5.106250e-01 0.000000e+00
7.604316e-01 4.789925e-01 0.000000e+00
7.603979e-01 5.106250e-01 0.000000e+00
7.605243e-01 4.520898e-01 0.000000e+00
7.604316e-01 4.789925e-01 0.000000e+00
7.965298e-01 4.522933e-01 0.000000e+00
7.964408e-01 4.791037e-01 0.000000e+00
7.604316e-01 4.789925e-01 0.000000e+00
7.603979e-01 5.106250e-01 0.000000e+00
7.964408e-01 4.791037e-01 0.000000e+00
7.964133e-01 5.106250e-01 0.000000e+00
7.965298e-01 4.522933e-01 0.000000e+00
7.964408e-01 4.791037e-01 0.000000e+00
8.325028e-01 4.525051e-01 0.000000e+00
8.324200e-01 4.792199e-01 0.000000e+00
7.964408e-01 4.791037e-01 0.000000e+00
7.964133e-01 5.106250e-01 0.000000e+00
8.324200e-01 4.792199e-01 0.000000e+00
8.324010e-01 5.106250e-01 0.000000e+00
8.325028e-01 4.525051e-01 0.000000e+00
8.324200e-01 4.792199e-01 0.000000e+00
8.684408e-01 4.527253e-01 0.000000e+00
8.683672e-01 4.793409e-01 0.000000e+00
8.324200e-01 4.792199e-01 0.000000e+00
8.324010e-01 5.106250e-01 0.000000e+00
8.683672e-01 4.793409e-01 0.000000e+00
8.683598e-01 5.106250e-01 0.000000e+00
8.684408e-01 4.527253e-01 0.000000e+00
8.683672e-01 4.793409e-01 0.000000e+00
9.043411e-01 4.529538e-01 0.000000e+00
9.042808e-01 4.794669e-01 0.000000e+00
8.683672e-01 4.793409e-01 0.000000e+00
8.683598e-01 5.106250e-01 0.000000e+00
9.042808e-01 4.794669e-01 0.000000e+00
9.042887e-01 5.106250e-01 0.000000e+00
9.043411e-01 4.529538e-01 0.000000e+00
9.042808e-01 4.794669e-01 0.000000e+00
9.402009e-01 4.531904e-01 0.000000e+00
9.401589e-01 4.795981e-01 0.000000e+00
9.042808e-01 4.794669e-01 0.000000e+00
9.042887e-01 5.106250e-01 0.000000e+00
9.401589e-01 4.795981e-01 0.000000e+00
9.401871e-01 5.106250e-01 0.000000e+00
9.402009e-01 4.531904e-01 0.000000e+00
9.401589e-01 4.795981e-01 0.000000e+00
9.760169e-01 4.534352e-01 0.000000e+00
9.759996e-01 4.797345e-01 0.000000e+00
9.401589e-01 4.795981e-01 0.000000e+00
9.401871e-01 5.106250e-01 0.000000e+00
9.759996e-01 4.797345e-01 0.000000e+00
9.760545e-01 5.106250e-01 0.000000e+00
9.760169e-01 4.534352e-01 0.000000e+00
9.759996e-01 4.797345e-01 0.000000e+00
1.011785e+00 4.536881e-01 0.000000e+00
1.011801e+00 4.798765e-01 0.000000e+00
9.759996e-01 4.797345e-01 0.000000e+00
9.760545e-01 5.106250e-01 0.000000e+00
1.011801e+00 4.798765e-01 0.000000e+00
1.011891e+00 5.106250e-01 0.000000e+00
1.011785e+00 4.536881e-01 0.000000e+00
1.011801e+00 4.798765e-01 0.000000e+00
1.047502e+00 4.539492e-01 0.000000e+00
1.047562e+00 4.800243e-01 0.000000e+00
1.011801e+00 4.798765e-01 0.000000e+00
1.011891e+00 5.106250e-01 0.000000e+00
1.047562e+00 4.800243e-01 0.000000e+00
1.047697e+00 5.106250e-01 0.000000e+00
1.047502e+00 4.539492e-01 0.000000e+00
1.047562e+00 4.800243e-01 0.000000e+00
1.083163e+00 4.542184e-01 0.000000e+00
1.083280e+00 4.801784e-01 0.000000e+00
1.047562e+00 4.800243e-01 0.000000e+00
1.047697e+00 5.106250e-01 0.000000e+00
1.083280e+00 4.801784e-01 0.000000e+00
1.083474e+00 5.106250e-01 0.000000e+00
1.083163e+00 4.542184e-01 0.000000e+00
1.083280e+00 4.801784e-01 0.000000e+00
1.118761e+00 4.544960e-01 0.000000e+00
1.118953e+00 4.803395e-01 0.000000e+00
1.083280e+00 4.801784e-01 0.000000e+00
1.083474e+00 5.106250e-01 0.000000e+00
1.118953e+00 4.803395e-01 0.000000e+00
1.119223e+00 5.106250e-01 0.000000e+00
1.118761e+00 4.544960e-01 0.000000e+00
[...]
<PointData>
<DataArray type="Float32" Name="V1" format="ascii">
1.293499e+02
4.827450e+01
1.293988e+02
4.832334e+01
5.035521e+01
1.066810e+01
5.037598e+01
1.068887e+01
1.294186e+02
4.829398e+01
1.295399e+02
4.841528e+01
5.039356e+01
1.068070e+01
5.045009e+01
1.073723e+01
1.295880e+02
4.836245e+01
1.297882e+02
4.856268e+01
5.048368e+01
1.071912e+01
5.058045e+01
1.081589e+01
1.298619e+02
4.848492e+01
1.301419e+02
4.876487e+01
5.062947e+01
1.078721e+01
5.076633e+01
1.092407e+01
1.302413e+02
4.866170e+01
1.306019e+02
4.902232e+01
5.083115e+01
1.088501e+01
5.100830e+01
1.106215e+01
1.307269e+02
4.889331e+01
1.311692e+02
4.933562e+01
5.108919e+01
1.101271e+01
5.130702e+01
1.123055e+01
1.313202e+02
4.918040e+01
1.318453e+02
4.970559e+01
5.140424e+01
1.117067e+01
5.166332e+01
1.142974e+01
1.320224e+02
4.952375e+01
1.326319e+02
5.013319e+01
5.177715e+01
1.135931e+01
5.207817e+01
1.166032e+01
1.328356e+02
4.992430e+01
1.335309e+02
5.061958e+01
5.220891e+01
1.157917e+01
5.255269e+01
1.192294e+01
1.337616e+02
5.038313e+01
1.345445e+02
5.116607e+01
5.270068e+01
1.183089e+01
5.308818e+01
1.221839e+01
1.348027e+02
5.090149e+01
1.356754e+02
5.177415e+01
5.325381e+01
1.211521e+01
5.368614e+01
1.254754e+01
1.359618e+02
5.148084e+01
1.369264e+02
5.244550e+01
5.386981e+01
1.243298e+01
5.434823e+01
1.291140e+01
1.372415e+02
5.212278e+01
1.383008e+02
5.318201e+01
5.455041e+01
1.278515e+01
5.507634e+01
1.331108e+01
1.386453e+02
5.282913e+01
1.398019e+02
5.398574e+01
5.529754e+01
1.317284e+01
5.587257e+01
1.374786e+01
1.401766e+02
5.360192e+01
1.414337e+02
5.485902e+01
5.611335e+01
1.359727e+01
5.673924e+01
1.422316e+01
1.418394e+02
5.444341e+01
1.432004e+02
5.580438e+01
5.700020e+01
1.405983e+01
5.767895e+01
1.473858e+01
1.436379e+02
5.535610e+01
1.451064e+02
5.682461e+01
5.796074e+01
1.456209e+01
5.869457e+01
1.529591e+01
1.455765e+02
5.634274e+01
1.471566e+02
5.792279e+01
5.899788e+01
1.510580e+01
5.978926e+01
1.589718e+01
1.476602e+02
5.740638e+01
1.493561e+02
5.910227e+01
6.011482e+01
1.569295e+01
6.096652e+01
1.654465e+01
1.498940e+02
5.855040e+01
1.517104e+02
6.036673e+01
6.131512e+01
1.632579e+01
6.223023e+01
1.724090e+01
1.522835e+02
5.977850e+01
1.542252e+02
6.172020e+01
6.260267e+01
1.700686e+01
6.358468e+01
1.798887e+01
1.548340e+02
6.109479e+01
1.569063e+02
6.316708e+01
6.398179e+01
1.773907e+01
6.503465e+01
1.879192e+01
1.575515e+02
6.250382e+01
1.597599e+02
6.471218e+01
6.545726e+01
1.852574e+01
6.658543e+01
1.965392e+01
1.604416e+02
6.401064e+01
1.627918e+02
6.636080e+01
6.703436e+01
1.937075e+01
6.824297e+01
2.057936e+01
1.635100e+02
6.562087e+01
1.660078e+02
6.811870e+01
6.871899e+01
2.027859e+01
7.001394e+01
2.157353e+01
1.667618e+02
6.734079e+01
1.694132e+02
6.999225e+01
7.051773e+01
2.125454e+01
7.190587e+01
2.264269e+01
1.702015e+02
6.917747e+01
1.730124e+02
7.198842e+01
7.243794e+01
2.230490e+01
7.392733e+01
2.379428e+01
1.738324e+02
7.113891e+01
1.768084e+02
7.411494e+01
7.448798e+01
2.343720e+01
7.608814e+01
2.503736e+01
1.776562e+02
7.323424e+01
1.808022e+02
7.638031e+01
7.667730e+01
2.466057e+01
7.839969e+01
2.638296e+01
1.816716e+02
7.547394e+01
1.849917e+02
7.879400e+01
7.901675e+01
2.598624e+01
8.087523e+01
2.784472e+01
1.858739e+02
7.787019e+01
1.893702e+02
8.136654e+01
8.151885e+01
2.742810e+01
8.353045e+01
2.943970e+01
1.902527e+02
8.043723e+01
1.939251e+02
8.410968e+01
8.419815e+01
2.900357e+01
8.638402e+01
3.118944e+01
1.947903e+02
8.319194e+01
1.986349e+02
8.703655e+01
8.707174e+01
3.073480e+01
8.945849e+01
3.312155e+01
1.994587e+02
8.615439e+01
2.034661e+02
9.016179e+01
9.015976e+01
3.265023e+01
9.278128e+01
3.527175e+01
2.042162e+02
8.934860e+01
2.083692e+02
9.350162e+01
9.348600e+01
3.478700e+01
9.638599e+01
3.768700e+01
2.090021e+02
9.280333e+01
2.132725e+02
9.707366e+01
9.707831e+01
3.719439e+01
1.003139e+02
4.042997e+01
2.137317e+02
9.655281e+01
2.180756e+02
1.008967e+02
1.009684e+02
3.993933e+01
1.046153e+02
4.358616e+01
2.182878e+02
1.006376e+02
2.226409e+02
1.049906e+02
1.051895e+02
4.311564e+01
1.093498e+02
4.727590e+01
2.225112e+02
1.051067e+02
2.267841e+02
1.093796e+02
1.097673e+02
4.686146e+01
1.145837e+02
5.167788e+01
2.261828e+02
1.100287e+02
2.302666e+02
1.141126e+02
1.146933e+02
5.139716e+01
1.203812e+02
5.708502e+01
2.289824e+02
1.155384e+02
2.327996e+02
1.193557e+02
1.198479e+02
5.712876e+01
1.267941e+02
6.407491e+01
2.303413e+02
1.220491e+02
2.341140e+02
1.258218e+02
1.248602e+02
6.500461e+01
1.339007e+02
7.404517e+01
2.294203e+02
1.308710e+02
2.341454e+02
1.355960e+02
1.289981e+02
7.894824e+01
1.407244e+02
9.067455e+01
2.298643e+02
1.402709e+02
2.341885e+02
1.445951e+02
1.376857e+02
9.259828e+01
1.448703e+02
9.978288e+01
2.324309e+02
1.463076e+02
2.376561e+02
1.515327e+02
1.444103e+02
9.993771e+01
1.508786e+02
1.064060e+02
2.372537e+02
1.518035e+02
2.432248e+02
1.577747e+02
1.509237e+02
1.063147e+02
1.569557e+02
1.123466e+02
2.436234e+02
1.572949e+02
2.501360e+02
1.638075e+02
1.574297e+02
1.120075e+02
1.630837e+02
1.176615e+02
2.510043e+02
1.628393e+02
2.578389e+02
1.696739e+02
1.638187e+02
1.171525e+02
1.691153e+02
1.224492e+02
2.590057e+02
1.683831e+02
2.659737e+02
1.753510e+02
1.700311e+02
1.218227e+02
1.749839e+02
1.267755e+02
2.673261e+02
1.738537e+02
2.742677e+02
1.807953e+02
1.760148e+02
1.260743e+02
1.806311e+02
1.306906e+02
2.757252e+02
1.791797e+02
2.825080e+02
1.859625e+02
1.817242e+02
1.299501e+02
1.860072e+02
1.342331e+02
2.840090e+02
1.842977e+02
2.905241e+02
1.908128e+02
1.871198e+02
1.334819e+02
1.910699e+02
1.374320e+02
2.920201e+02
1.891539e+02
2.981786e+02
1.953125e+02
1.921679e+02
1.366933e+02
1.957840e+02
1.403094e+02
2.996303e+02
1.937038e+02
3.053605e+02
1.994340e+02
1.968404e+02
1.396010e+02
2.001205e+02
1.428811e+02
3.067362e+02
1.979111e+02
3.119802e+02
2.031551e+02
2.011140e+02
1.422171e+02
2.040558e+02
1.451588e+02
3.132543e+02
2.017465e+02
3.179660e+02
2.064582e+02
2.049698e+02
1.445499e+02
2.075709e+02
1.471510e+02
3.191179e+02
2.051864e+02
3.232610e+02
2.093295e+02
2.083926e+02
1.466053e+02
2.106510e+02
1.488637e+02
3.242743e+02
2.082121e+02
3.278204e+02
2.117582e+02
2.113702e+02
1.483872e+02
2.132842e+02
1.503011e+02
3.286820e+02
2.108091e+02
3.316093e+02
2.137365e+02
2.138933e+02
1.498984e+02
2.154612e+02
1.514663e+02
3.323094e+02
2.129660e+02
3.346016e+02
2.152582e+02
2.159546e+02
1.511407e+02
2.171753e+02
1.523614e+02
3.351327e+02
2.146742e+02
3.367779e+02
2.163193e+02
2.175487e+02
1.521154e+02
2.184212e+02
1.529879e+02
3.371348e+02
2.159271e+02
3.381249e+02
2.169173e+02
2.186717e+02
1.528230e+02
2.191954e+02
1.533468e+02
3.383042e+02
2.167203e+02
3.386348e+02
2.170509e+02
2.193211e+02
1.532641e+02
2.194957e+02
1.534388e+02
</DataArray>
<DataArray type="Float32" Name="V2" format="ascii">
4.499389e-01
4.778262e-01
4.507122e-01
4.785852e-01
4.778262e-01
5.106250e-01
4.785852e-01
5.113712e-01
4.507122e-01
4.785852e-01
4.530220e-01
4.808616e-01
4.785852e-01
5.113712e-01
4.808616e-01
5.136087e-01
4.530220e-01
4.808616e-01
4.568679e-01
4.846520e-01
4.808616e-01
5.136087e-01
4.846520e-01
5.173342e-01
4.568679e-01
4.846520e-01
4.622444e-01
4.899508e-01
4.846520e-01
5.173342e-01
4.899508e-01
5.225424e-01
4.622444e-01
4.899508e-01
4.691435e-01
4.967504e-01
4.899508e-01
5.225424e-01
4.967504e-01
5.292256e-01
4.691435e-01
4.967504e-01
4.775554e-01
5.050408e-01
4.967504e-01
5.292256e-01
5.050408e-01
5.373742e-01
4.775554e-01
5.050408e-01
4.874676e-01
5.148100e-01
5.050408e-01
5.373742e-01
5.148100e-01
5.469762e-01
4.874676e-01
5.148100e-01
4.988658e-01
5.260437e-01
5.148100e-01
5.469762e-01
5.260437e-01
5.580178e-01
4.988658e-01
5.260437e-01
5.117333e-01
5.387255e-01
5.260437e-01
5.580178e-01
5.387255e-01
5.704827e-01
5.117333e-01
5.387255e-01
5.260514e-01
5.528370e-01
5.387255e-01
5.704827e-01
5.528370e-01
5.843528e-01
5.260514e-01
5.528370e-01
5.417989e-01
5.683574e-01
5.528370e-01
5.843528e-01
5.683574e-01
5.996078e-01
5.417989e-01
5.683574e-01
5.589528e-01
5.852640e-01
5.683574e-01
5.996078e-01
5.852640e-01
6.162252e-01
5.589528e-01
5.852640e-01
5.774880e-01
6.035319e-01
5.852640e-01
6.162252e-01
6.035319e-01
6.341808e-01
5.774880e-01
6.035319e-01
5.973769e-01
6.231343e-01
6.035319e-01
6.341808e-01
6.231343e-01
6.534480e-01
5.973769e-01
6.231343e-01
6.185903e-01
6.440422e-01
6.231343e-01
6.534480e-01
6.440422e-01
6.739984e-01
6.185903e-01
6.440422e-01
6.410967e-01
6.662246e-01
6.440422e-01
6.739984e-01
6.662246e-01
6.958016e-01
6.410967e-01
6.662246e-01
6.648627e-01
6.896486e-01
6.662246e-01
6.958016e-01
6.896486e-01
7.188254e-01
6.648627e-01
6.896486e-01
6.898527e-01
7.142794e-01
6.896486e-01
7.188254e-01
7.142794e-01
7.430354e-01
6.898527e-01
7.142794e-01
7.160294e-01
7.400803e-01
7.142794e-01
7.430354e-01
7.400803e-01
7.683956e-01
7.160294e-01
7.400803e-01
7.433534e-01
7.670124e-01
7.400803e-01
7.683956e-01
7.670124e-01
7.948681e-01
7.433534e-01
7.670124e-01
7.717834e-01
7.950355e-01
7.670124e-01
7.948681e-01
7.950355e-01
8.224132e-01
7.717834e-01
7.950355e-01
8.012764e-01
8.241072e-01
7.950355e-01
8.224132e-01
8.241072e-01
8.509896e-01
8.012764e-01
8.241072e-01
8.317873e-01
8.541835e-01
8.241072e-01
8.509896e-01
8.541835e-01
8.805543e-01
8.317873e-01
8.541835e-01
8.632693e-01
8.852187e-01
8.541835e-01
8.805543e-01
8.852187e-01
9.110627e-01
8.632693e-01
8.852187e-01
8.956738e-01
9.171656e-01
8.852187e-01
9.110627e-01
9.171656e-01
9.424687e-01
8.956738e-01
9.171656e-01
9.289503e-01
9.499753e-01
9.171656e-01
9.424687e-01
9.499753e-01
9.747249e-01
9.289503e-01
9.499753e-01
9.630465e-01
9.835973e-01
9.499753e-01
9.747249e-01
9.835973e-01
1.007783e+00
9.630465e-01
9.835973e-01
9.979084e-01
1.017980e+00
9.835973e-01
1.007783e+00
1.017980e+00
1.041592e+00
9.979084e-01
1.017980e+00
1.033480e+00
1.053070e+00
1.017980e+00
1.041592e+00
1.053070e+00
1.076103e+00
1.033480e+00
1.053070e+00
1.069703e+00
1.088813e+00
1.053070e+00
1.076103e+00
1.088813e+00
1.111264e+00
1.069703e+00
1.088813e+00
1.106519e+00
1.125154e+00
1.088813e+00
1.111264e+00
1.125154e+00
1.147022e+00
1.106519e+00
1.125154e+00
1.143863e+00
1.162035e+00
1.125154e+00
1.147022e+00
1.162035e+00
1.183328e+00
1.143863e+00
1.162035e+00
1.181673e+00
1.199400e+00
1.162035e+00
1.183328e+00
1.199400e+00
1.220128e+00
1.181673e+00
1.199400e+00
1.219880e+00
1.237190e+00
1.199400e+00
1.220128e+00
1.237190e+00
1.257373e+00
1.219880e+00
1.237190e+00
1.258414e+00
1.275346e+00
1.237190e+00
1.257373e+00
1.275346e+00
1.295016e+00
1.258414e+00
1.275346e+00
1.297199e+00
1.313809e+00
1.275346e+00
1.295016e+00
1.313809e+00
1.333010e+00
1.297199e+00
1.313809e+00
1.336157e+00
1.352518e+00
1.313809e+00
1.333010e+00
1.352518e+00
1.371315e+00
1.336157e+00
1.352518e+00
1.375199e+00
1.391411e+00
1.352518e+00
1.371315e+00
1.391411e+00
1.409897e+00
1.375199e+00
1.391411e+00
1.414231e+00
1.430423e+00
1.391411e+00
1.409897e+00
1.430423e+00
1.448734e+00
1.414231e+00
1.430423e+00
1.453137e+00
1.469477e+00
1.430423e+00
1.448734e+00
1.469477e+00
1.487813e+00
1.453137e+00
1.469477e+00
1.491765e+00
1.508459e+00
1.469477e+00
1.487813e+00
1.508459e+00
1.527131e+00
1.491765e+00
1.508459e+00
1.529865e+00
1.547122e+00
1.508459e+00
1.527131e+00
1.547122e+00
1.566598e+00
1.529865e+00
1.547122e+00
1.567046e+00
1.584818e+00
1.547122e+00
1.566598e+00
1.584818e+00
1.604903e+00
1.567046e+00
1.584818e+00
1.602198e+00
1.620200e+00
1.584818e+00
1.604903e+00
1.620200e+00
1.640392e+00
1.602198e+00
1.620200e+00
1.634984e+00
1.653402e+00
1.620200e+00
1.640392e+00
1.653402e+00
1.674025e+00
1.634984e+00
1.653402e+00
1.665446e+00
1.684422e+00
1.653402e+00
1.674025e+00
1.684422e+00
1.705590e+00
1.665446e+00
1.684422e+00
1.693683e+00
1.713261e+00
1.684422e+00
1.705590e+00
1.713261e+00
1.735025e+00
1.693683e+00
1.713261e+00
1.719771e+00
1.739941e+00
1.713261e+00
1.735025e+00
1.739941e+00
1.762306e+00
1.719771e+00
1.739941e+00
1.743786e+00
1.764509e+00
1.739941e+00
1.762306e+00
1.764509e+00
1.787450e+00
1.743786e+00
1.764509e+00
1.765802e+00
1.787024e+00
1.764509e+00
1.787450e+00
1.787024e+00
1.810497e+00
1.765802e+00
1.787024e+00
1.785889e+00
1.807551e+00
1.787024e+00
1.810497e+00
1.807551e+00
1.831503e+00
1.785889e+00
1.807551e+00
1.804113e+00
1.826156e+00
1.807551e+00
1.831503e+00
1.826156e+00
1.850532e+00
1.804113e+00
1.826156e+00
1.820539e+00
1.842907e+00
1.826156e+00
1.850532e+00
1.842907e+00
1.867650e+00
1.820539e+00
1.842907e+00
1.835224e+00
1.857866e+00
1.842907e+00
1.867650e+00
1.857866e+00
1.882923e+00
1.835224e+00
1.857866e+00
1.848220e+00
1.871090e+00
1.857866e+00
1.882923e+00
1.871090e+00
1.896414e+00
1.848220e+00
1.871090e+00
1.859576e+00
1.882634e+00
1.871090e+00
1.896414e+00
1.882634e+00
1.908179e+00
1.859576e+00
1.882634e+00
1.869334e+00
1.892543e+00
1.882634e+00
1.908179e+00
1.892543e+00
1.918270e+00
1.869334e+00
1.892543e+00
1.877529e+00
1.900860e+00
1.892543e+00
1.918270e+00
1.900860e+00
1.926732e+00
1.877529e+00
1.900860e+00
1.884192e+00
1.907617e+00
1.900860e+00
1.926732e+00
1.907617e+00
1.933604e+00
1.884192e+00
1.907617e+00
1.889350e+00
1.912844e+00
1.907617e+00
1.933604e+00
1.912844e+00
1.938917e+00
1.889350e+00
1.912844e+00
1.893019e+00
1.916561e+00
1.912844e+00
1.938917e+00
1.916561e+00
1.942694e+00
1.893019e+00
1.916561e+00
1.895216e+00
1.918786e+00
1.916561e+00
1.942694e+00
1.918786e+00
1.944953e+00
1.895216e+00
1.918786e+00
1.895947e+00
1.919526e+00
1.918786e+00
1.944953e+00
1.919526e+00
1.945705e+00
</DataArray>
<DataArray type="Float32" Name="V3" format="ascii">
0.000000e+00
0.000000e+00
2.507765e-02
2.437611e-02
0.000000e+00
0.000000e+00
2.437611e-02
2.355509e-02
2.507765e-02
2.437611e-02
5.009284e-02
4.869048e-02
2.437611e-02
2.355509e-02
4.869048e-02
4.704927e-02
5.009284e-02
4.869048e-02
7.498280e-02
7.288124e-02
4.869048e-02
4.704927e-02
7.288124e-02
7.042174e-02
7.498280e-02
7.288124e-02
9.968512e-02
9.688679e-02
7.288124e-02
7.042174e-02
9.688679e-02
9.361179e-02
9.968512e-02
9.688679e-02
1.241376e-01
1.206457e-01
9.688679e-02
9.361179e-02
1.206457e-01
1.165589e-01
1.241376e-01
1.206457e-01
1.482784e-01
1.440969e-01
1.206457e-01
1.165589e-01
1.440969e-01
1.392030e-01
1.482784e-01
1.440969e-01
1.720458e-01
1.671795e-01
1.440969e-01
1.392030e-01
1.671795e-01
1.614840e-01
1.720458e-01
1.671795e-01
1.953789e-01
1.898333e-01
1.671795e-01
1.614840e-01
1.898333e-01
1.833427e-01
1.953789e-01
1.898333e-01
2.182169e-01
2.119984e-01
1.898333e-01
1.833427e-01
2.119984e-01
2.047200e-01
2.182169e-01
2.119984e-01
2.404998e-01
2.336155e-01
2.119984e-01
2.047200e-01
2.336155e-01
2.255575e-01
2.404998e-01
2.336155e-01
2.621683e-01
2.546260e-01
2.336155e-01
2.255575e-01
2.546260e-01
2.457976e-01
2.621683e-01
2.546260e-01
2.831636e-01
2.749719e-01
2.546260e-01
2.457976e-01
2.749719e-01
2.653830e-01
2.831636e-01
2.749719e-01
3.034279e-01
2.945961e-01
2.749719e-01
2.653830e-01
2.945961e-01
2.842576e-01
3.034279e-01
2.945961e-01
3.229041e-01
3.134423e-01
2.945961e-01
2.842576e-01
3.134423e-01
3.023658e-01
3.229041e-01
3.134423e-01
3.415361e-01
3.314549e-01
3.134423e-01
3.023658e-01
3.314549e-01
3.196530e-01
3.415361e-01
3.314549e-01
3.592687e-01
3.485797e-01
3.314549e-01
3.196530e-01
3.485797e-01
3.360657e-01
3.592687e-01
3.485797e-01
3.760479e-01
3.647632e-01
3.485797e-01
3.360657e-01
3.647632e-01
3.515512e-01
3.760479e-01
3.647632e-01
3.918207e-01
3.799532e-01
3.647632e-01
3.515512e-01
3.799532e-01
3.660582e-01
3.918207e-01
3.799532e-01
4.065352e-01
3.940984e-01
3.799532e-01
3.660582e-01
3.940984e-01
3.795363e-01
4.065352e-01
3.940984e-01
4.201409e-01
4.071492e-01
3.940984e-01
3.795363e-01
4.071492e-01
3.919366e-01
4.201409e-01
4.071492e-01
4.325885e-01
4.190568e-01
4.071492e-01
3.919366e-01
4.190568e-01
4.032114e-01
4.325885e-01
4.190568e-01
4.438300e-01
4.297741e-01
4.190568e-01
4.032114e-01
4.297741e-01
4.133143e-01
4.438300e-01
4.297741e-01
4.538190e-01
4.392554e-01
4.297741e-01
4.133143e-01
4.392554e-01
4.222007e-01
4.538190e-01
4.392554e-01
4.625102e-01
4.474563e-01
4.392554e-01
4.222007e-01
4.474563e-01
4.298272e-01
4.625102e-01
4.474563e-01
4.698600e-01
4.543342e-01
4.474563e-01
4.298272e-01
4.543342e-01
4.361522e-01
4.698600e-01
4.543342e-01
4.758263e-01
4.598478e-01
4.543342e-01
4.361522e-01
4.598478e-01
4.411361e-01
4.758263e-01
4.598478e-01
4.803685e-01
4.639576e-01
4.598478e-01
4.411361e-01
4.639576e-01
4.447406e-01
4.803685e-01
4.639576e-01
4.834475e-01
4.666260e-01
4.639576e-01
4.447406e-01
4.666260e-01
4.469299e-01
4.834475e-01
4.666260e-01
4.850258e-01
4.678169e-01
4.666260e-01
4.469299e-01
4.678169e-01
4.476700e-01
4.850258e-01
4.678169e-01
4.850674e-01
4.674959e-01
4.678169e-01
4.476700e-01
4.674959e-01
4.469291e-01
4.850674e-01
4.674959e-01
4.835378e-01
4.656309e-01
4.674959e-01
4.469291e-01
4.656309e-01
4.446777e-01
4.835378e-01
4.656309e-01
4.804040e-01
4.621911e-01
4.656309e-01
4.446777e-01
4.621911e-01
4.408891e-01
4.804040e-01
4.621911e-01
4.756344e-01
4.571478e-01
4.621911e-01
4.408891e-01
4.571478e-01
4.355391e-01
4.756344e-01
4.571478e-01
4.691986e-01
4.504744e-01
4.571478e-01
4.355391e-01
4.504744e-01
4.286065e-01
4.691986e-01
4.504744e-01
4.610674e-01
4.421458e-01
4.504744e-01
4.286065e-01
4.421458e-01
4.200735e-01
4.610674e-01
4.421458e-01
4.512127e-01
4.321388e-01
4.421458e-01
4.200735e-01
4.321388e-01
4.099258e-01
4.512127e-01
4.321388e-01
4.396076e-01
4.204318e-01
4.321388e-01
4.099258e-01
4.204318e-01
3.981532e-01
4.396076e-01
4.204318e-01
4.262259e-01
4.070050e-01
4.204318e-01
3.981532e-01
4.070050e-01
3.847506e-01
4.262259e-01
4.070050e-01
4.110436e-01
3.918403e-01
4.070050e-01
3.847506e-01
3.918403e-01
3.697184e-01
4.110436e-01
3.918403e-01
3.940421e-01
3.749249e-01
3.918403e-01
3.697184e-01
3.749249e-01
3.530636e-01
3.940421e-01
3.749249e-01
3.752239e-01
3.562638e-01
3.749249e-01
3.530636e-01
3.562638e-01
3.347921e-01
3.752239e-01
3.562638e-01
3.546755e-01
3.359268e-01
3.562638e-01
3.347921e-01
3.359268e-01
3.148567e-01
3.546755e-01
3.359268e-01
3.328755e-01
3.143731e-01
3.359268e-01
3.148567e-01
3.143731e-01
2.932442e-01
3.328755e-01
3.143731e-01
3.115964e-01
2.936899e-01
3.143731e-01
2.932442e-01
2.936899e-01
2.734713e-01
3.115964e-01
2.936899e-01
2.913562e-01
2.742002e-01
2.936899e-01
2.734713e-01
2.742002e-01
2.550584e-01
2.913562e-01
2.742002e-01
2.721073e-01
2.558281e-01
2.742002e-01
2.550584e-01
2.558281e-01
2.378064e-01
2.721073e-01
2.558281e-01
2.536792e-01
2.383662e-01
2.558281e-01
2.378064e-01
2.383662e-01
2.214990e-01
2.536792e-01
2.383662e-01
2.359311e-01
2.216428e-01
2.383662e-01
2.214990e-01
2.216428e-01
2.059529e-01
2.359311e-01
2.216428e-01
2.187386e-01
2.055076e-01
2.216428e-01
2.059529e-01
2.055076e-01
1.910061e-01
2.187386e-01
2.055076e-01
2.019958e-01
1.898347e-01
2.055076e-01
1.910061e-01
1.898347e-01
1.765205e-01
2.019958e-01
1.898347e-01
1.856137e-01
1.745196e-01
1.898347e-01
1.765205e-01
1.745196e-01
1.623807e-01
1.856137e-01
1.745196e-01
1.695180e-01
1.594770e-01
1.745196e-01
1.623807e-01
1.594770e-01
1.484932e-01
1.695180e-01
1.594770e-01
1.536477e-01
1.446384e-01
1.594770e-01
1.484932e-01
1.446384e-01
1.347836e-01
1.536477e-01
1.446384e-01
1.379526e-01
1.299493e-01
1.446384e-01
1.347836e-01
1.299493e-01
1.211939e-01
1.379526e-01
1.299493e-01
1.223923e-01
1.153671e-01
1.299493e-01
1.211939e-01
1.153671e-01
1.076801e-01
1.223923e-01
1.153671e-01
1.069343e-01
1.008590e-01
1.153671e-01
1.076801e-01
1.008590e-01
9.420996e-02
1.069343e-01
1.008590e-01
9.155268e-02
8.640061e-02
1.008590e-01
9.420996e-02
8.640061e-02
8.076049e-02
9.155268e-02
8.640061e-02
7.622724e-02
7.197390e-02
8.640061e-02
8.076049e-02
7.197390e-02
6.731649e-02
7.622724e-02
7.197390e-02
6.094220e-02
5.756628e-02
7.197390e-02
6.731649e-02
5.756628e-02
5.386883e-02
6.094220e-02
5.756628e-02
4.568541e-02
4.316931e-02
5.756628e-02
5.386883e-02
4.316931e-02
4.041306e-02
4.568541e-02
4.316931e-02
3.044748e-02
2.877770e-02
4.316931e-02
4.041306e-02
2.877770e-02
2.694830e-02
3.044748e-02
2.877770e-02
1.522103e-02
1.438844e-02
2.877770e-02
2.694830e-02
1.438844e-02
1.347618e-02
1.522103e-02
1.438844e-02
0.000000e+00
0.000000e+00
1.438844e-02
1.347618e-02
0.000000e+00
0.000000e+00
</DataArray>
<DataArray type="Float32" Name="V4" format="ascii">
8.500000e-01
9.250000e-01
8.500000e-01
9.250000e-01
9.250000e-01
1.000000e+00