<?xml version="1.0"?>
<VTKFile type="UnstructuredGrid" version="0.1" byte_order="LittleEndian" compressor="vtkZLibDataCompressor">
<UnstructuredGrid>
<Piece NumberOfPoints="504" NumberOfCells="126">
<Points>
<DataArray type="Float32" NumberOfComponents="3" format="ascii">
0.000000e+00 8.423726e-01 0.000000e+00
0.000000e+00 8.918643e-01 0.000000e+00
2.725643e-02 8.423887e-01 0.000000e+00
2.725438e-02 8.918756e-01 0.000000e+00
0.000000e+00 8.918643e-01 0.000000e+00
0.000000e+00 9.500000e-01 0.000000e+00
2.725438e-02 8.918756e-01 0.000000e+00
2.727095e-02 9.500000e-01 0.000000e+00
2.725643e-02 8.423887e-01 0.000000e+00
2.725438e-02 8.918756e-01 0.000000e+00
5.451032e-02 8.424341e-01 0.000000e+00
5.451020e-02 8.919097e-01 0.000000e+00
2.725438e-02 8.918756e-01 0.000000e+00
2.727095e-02 9.500000e-01 0.000000e+00
5.451020e-02 8.919097e-01 0.000000e+00
5.454679e-02 9.500000e-01 0.000000e+00
5.451032e-02 8.424341e-01 0.000000e+00
5.451020e-02 8.919097e-01 0.000000e+00
8.175860e-02 8.425105e-01 0.000000e+00
8.176909e-02 8.919679e-01 0.000000e+00
5.451020e-02 8.919097e-01 0.000000e+00
5.454679e-02 9.500000e-01 0.000000e+00
8.176909e-02 8.919679e-01 0.000000e+00
8.183290e-02 9.500000e-01 0.000000e+00
8.175860e-02 8.425105e-01 0.000000e+00
8.176909e-02 8.919679e-01 0.000000e+00
1.089977e-01 8.426187e-01 0.000000e+00
1.090328e-01 8.920518e-01 0.000000e+00
8.176909e-02 8.919679e-01 0.000000e+00
8.183290e-02 9.500000e-01 0.000000e+00
1.090328e-01 8.920518e-01 0.000000e+00
1.091355e-01 9.500000e-01 0.000000e+00
1.089977e-01 8.426187e-01 0.000000e+00
1.090328e-01 8.920518e-01 0.000000e+00
1.362228e-01 8.427601e-01 0.000000e+00
1.363034e-01 8.921643e-01 0.000000e+00
1.090328e-01 8.920518e-01 0.000000e+00
1.091355e-01 9.500000e-01 0.000000e+00
1.363034e-01 8.921643e-01 0.000000e+00
1.364619e-01 9.500000e-01 0.000000e+00
1.362228e-01 8.427601e-01 0.000000e+00
1.363034e-01 8.921643e-01 0.000000e+00
1.634278e-01 8.429358e-01 0.000000e+00
1.635833e-01 8.923084e-01 0.000000e+00
1.363034e-01 8.921643e-01 0.000000e+00
1.364619e-01 9.500000e-01 0.000000e+00
1.635833e-01 8.923084e-01 0.000000e+00
1.638216e-01 9.500000e-01 0.000000e+00
1.634278e-01 8.429358e-01 0.000000e+00
1.635833e-01 8.923084e-01 0.000000e+00
1.906041e-01 8.431466e-01 0.000000e+00
1.908753e-01 8.924881e-01 0.000000e+00
1.635833e-01 8.923084e-01 0.000000e+00
1.638216e-01 9.500000e-01 0.000000e+00
1.908753e-01 8.924881e-01 0.000000e+00
1.912258e-01 9.500000e-01 0.000000e+00
1.906041e-01 8.431466e-01 0.000000e+00
1.908753e-01 8.924881e-01 0.000000e+00
2.177401e-01 8.433924e-01 0.000000e+00
2.181823e-01 8.927073e-01 0.000000e+00
1.908753e-01 8.924881e-01 0.000000e+00
1.912258e-01 9.500000e-01 0.000000e+00
2.181823e-01 8.927073e-01 0.000000e+00
2.186888e-01 9.500000e-01 0.000000e+00
2.177401e-01 8.433924e-01 0.000000e+00
2.181823e-01 8.927073e-01 0.000000e+00
2.448206e-01 8.436706e-01 0.000000e+00
2.455070e-01 8.929691e-01 0.000000e+00
2.181823e-01 8.927073e-01 0.000000e+00
2.186888e-01 9.500000e-01 0.000000e+00
2.455070e-01 8.929691e-01 0.000000e+00
2.462275e-01 9.500000e-01 0.000000e+00
2.448206e-01 8.436706e-01 0.000000e+00
2.455070e-01 8.929691e-01 0.000000e+00
2.718248e-01 8.439747e-01 0.000000e+00
2.728510e-01 8.932747e-01 0.000000e+00
2.455070e-01 8.929691e-01 0.000000e+00
2.462275e-01 9.500000e-01 0.000000e+00
2.728510e-01 8.932747e-01 0.000000e+00
2.738622e-01 9.500000e-01 0.000000e+00
2.718248e-01 8.439747e-01 0.000000e+00
2.728510e-01 8.932747e-01 0.000000e+00
2.987262e-01 8.442910e-01 0.000000e+00
3.002130e-01 8.936208e-01 0.000000e+00
2.728510e-01 8.932747e-01 0.000000e+00
2.738622e-01 9.500000e-01 0.000000e+00
3.002130e-01 8.936208e-01 0.000000e+00
3.016150e-01 9.500000e-01 0.000000e+00
2.987262e-01 8.442910e-01 0.000000e+00
3.002130e-01 8.936208e-01 0.000000e+00
3.254908e-01 8.445938e-01 0.000000e+00
3.275850e-01 8.939947e-01 0.000000e+00
3.002130e-01 8.936208e-01 0.000000e+00
3.016150e-01 9.500000e-01 0.000000e+00
3.275850e-01 8.939947e-01 0.000000e+00
3.295090e-01 9.500000e-01 0.000000e+00
3.254908e-01 8.445938e-01 0.000000e+00
3.275850e-01 8.939947e-01 0.000000e+00
3.520769e-01 8.448375e-01 0.000000e+00
3.549458e-01 8.943659e-01 0.000000e+00
3.275850e-01 8.939947e-01 0.000000e+00
3.295090e-01 9.500000e-01 0.000000e+00
3.549458e-01 8.943659e-01 0.000000e+00
3.575634e-01 9.500000e-01 0.000000e+00
3.520769e-01 8.448375e-01 0.000000e+00
3.549458e-01 8.943659e-01 0.000000e+00
3.784352e-01 8.449459e-01 0.000000e+00
3.822491e-01 8.946712e-01 0.000000e+00
3.549458e-01 8.943659e-01 0.000000e+00
3.575634e-01 9.500000e-01 0.000000e+00
3.822491e-01 8.946712e-01 0.000000e+00
3.857869e-01 9.500000e-01 0.000000e+00
3.784352e-01 8.449459e-01 0.000000e+00
3.822491e-01 8.946712e-01 0.000000e+00
4.045069e-01 8.447914e-01 0.000000e+00
4.094063e-01 8.947768e-01 0.000000e+00
3.822491e-01 8.946712e-01 0.000000e+00
3.857869e-01 9.500000e-01 0.000000e+00
4.094063e-01 8.947768e-01 0.000000e+00
4.141680e-01 9.500000e-01 0.000000e+00
4.045069e-01 8.447914e-01 0.000000e+00
4.094063e-01 8.947768e-01 0.000000e+00
4.302337e-01 8.441855e-01 0.000000e+00
4.363183e-01 8.944532e-01 0.000000e+00
4.094063e-01 8.947768e-01 0.000000e+00
4.141680e-01 9.500000e-01 0.000000e+00
4.363183e-01 8.944532e-01 0.000000e+00
4.425809e-01 9.500000e-01 0.000000e+00
4.302337e-01 8.441855e-01 0.000000e+00
4.363183e-01 8.944532e-01 0.000000e+00
4.556530e-01 8.428640e-01 0.000000e+00
4.630460e-01 8.932894e-01 0.000000e+00
4.363183e-01 8.944532e-01 0.000000e+00
4.425809e-01 9.500000e-01 0.000000e+00
4.630460e-01 8.932894e-01 0.000000e+00
4.706816e-01 9.489151e-01 0.000000e+00
4.556530e-01 8.428640e-01 0.000000e+00
4.630460e-01 8.932894e-01 0.000000e+00
4.806978e-01 8.405797e-01 0.000000e+00
4.894874e-01 8.909168e-01 0.000000e+00
4.630460e-01 8.932894e-01 0.000000e+00
4.706816e-01 9.489151e-01 0.000000e+00
4.894874e-01 8.909168e-01 0.000000e+00
4.988179e-01 9.457835e-01 0.000000e+00
4.806978e-01 8.405797e-01 0.000000e+00
4.894874e-01 8.909168e-01 0.000000e+00
5.054212e-01 8.372209e-01 0.000000e+00
5.157682e-01 8.872871e-01 0.000000e+00
4.894874e-01 8.909168e-01 0.000000e+00
4.988179e-01 9.457835e-01 0.000000e+00
5.157682e-01 8.872871e-01 0.000000e+00
5.269587e-01 9.413377e-01 0.000000e+00
5.054212e-01 8.372209e-01 0.000000e+00
5.157682e-01 8.872871e-01 0.000000e+00
5.298534e-01 8.327409e-01 0.000000e+00
5.418942e-01 8.823853e-01 0.000000e+00
5.157682e-01 8.872871e-01 0.000000e+00
5.269587e-01 9.413377e-01 0.000000e+00
5.418942e-01 8.823853e-01 0.000000e+00
5.549793e-01 9.356030e-01 0.000000e+00
5.298534e-01 8.327409e-01 0.000000e+00
5.418942e-01 8.823853e-01 0.000000e+00
5.540037e-01 8.271584e-01 0.000000e+00
5.678161e-01 8.762614e-01 0.000000e+00
5.418942e-01 8.823853e-01 0.000000e+00
5.549793e-01 9.356030e-01 0.000000e+00
5.678161e-01 8.762614e-01 0.000000e+00
5.828028e-01 9.286313e-01 0.000000e+00
5.540037e-01 8.271584e-01 0.000000e+00
5.678161e-01 8.762614e-01 0.000000e+00
5.778694e-01 8.205024e-01 0.000000e+00
5.934781e-01 8.689621e-01 0.000000e+00
5.678161e-01 8.762614e-01 0.000000e+00
5.828028e-01 9.286313e-01 0.000000e+00
5.934781e-01 8.689621e-01 0.000000e+00
6.103550e-01 9.204610e-01 0.000000e+00
5.778694e-01 8.205024e-01 0.000000e+00
5.934781e-01 8.689621e-01 0.000000e+00
6.014381e-01 8.128079e-01 0.000000e+00
6.188312e-01 8.605362e-01 0.000000e+00
5.934781e-01 8.689621e-01 0.000000e+00
6.103550e-01 9.204610e-01 0.000000e+00
6.188312e-01 8.605362e-01 0.000000e+00
6.375721e-01 9.111342e-01 0.000000e+00
6.014381e-01 8.128079e-01 0.000000e+00
6.188312e-01 8.605362e-01 0.000000e+00
6.246919e-01 8.041109e-01 0.000000e+00
6.438346e-01 8.510324e-01 0.000000e+00
6.188312e-01 8.605362e-01 0.000000e+00
6.375721e-01 9.111342e-01 0.000000e+00
6.438346e-01 8.510324e-01 0.000000e+00
6.644004e-01 9.006962e-01 0.000000e+00
6.246919e-01 8.041109e-01 0.000000e+00
6.438346e-01 8.510324e-01 0.000000e+00
6.476105e-01 7.944475e-01 0.000000e+00
6.684532e-01 8.404982e-01 0.000000e+00
6.438346e-01 8.510324e-01 0.000000e+00
6.644004e-01 9.006962e-01 0.000000e+00
6.684532e-01 8.404982e-01 0.000000e+00
6.907950e-01 8.891937e-01 0.000000e+00
6.476105e-01 7.944475e-01 0.000000e+00
6.684532e-01 8.404982e-01 0.000000e+00
6.701721e-01 7.838538e-01 0.000000e+00
6.926570e-01 8.289793e-01 0.000000e+00
6.684532e-01 8.404982e-01 0.000000e+00
6.907950e-01 8.891937e-01 0.000000e+00
6.926570e-01 8.289793e-01 0.000000e+00
7.167192e-01 8.766733e-01 0.000000e+00
6.701721e-01 7.838538e-01 0.000000e+00
6.926570e-01 8.289793e-01 0.000000e+00
6.923551e-01 7.723651e-01 0.000000e+00
7.164197e-01 8.165197e-01 0.000000e+00
6.926570e-01 8.289793e-01 0.000000e+00
7.167192e-01 8.766733e-01 0.000000e+00
7.164197e-01 8.165197e-01 0.000000e+00
7.421422e-01 8.631810e-01 0.000000e+00
6.923551e-01 7.723651e-01 0.000000e+00
7.164197e-01 8.165197e-01 0.000000e+00
7.141381e-01 7.600161e-01 0.000000e+00
7.397182e-01 8.031613e-01 0.000000e+00
7.164197e-01 8.165197e-01 0.000000e+00
7.421422e-01 8.631810e-01 0.000000e+00
7.397182e-01 8.031613e-01 0.000000e+00
7.670385e-01 8.487609e-01 0.000000e+00
7.141381e-01 7.600161e-01 0.000000e+00
7.397182e-01 8.031613e-01 0.000000e+00
7.355008e-01 7.468407e-01 0.000000e+00
7.625316e-01 7.889441e-01 0.000000e+00
7.397182e-01 8.031613e-01 0.000000e+00
7.670385e-01 8.487609e-01 0.000000e+00
7.625316e-01 7.889441e-01 0.000000e+00
7.913862e-01 8.334555e-01 0.000000e+00
7.355008e-01 7.468407e-01 0.000000e+00
7.625316e-01 7.889441e-01 0.000000e+00
7.564235e-01 7.328722e-01 0.000000e+00
7.848411e-01 7.739061e-01 0.000000e+00
7.625316e-01 7.889441e-01 0.000000e+00
7.913862e-01 8.334555e-01 0.000000e+00
7.848411e-01 7.739061e-01 0.000000e+00
8.151670e-01 8.173049e-01 0.000000e+00
7.564235e-01 7.328722e-01 0.000000e+00
7.848411e-01 7.739061e-01 0.000000e+00
7.768877e-01 7.181425e-01 0.000000e+00
8.066297e-01 7.580835e-01 0.000000e+00
7.848411e-01 7.739061e-01 0.000000e+00
8.151670e-01 8.173049e-01 0.000000e+00
8.066297e-01 7.580835e-01 0.000000e+00
8.383647e-01 8.003476e-01 0.000000e+00
7.768877e-01 7.181425e-01 0.000000e+00
[...]
<PointData>
<DataArray type="Float32" Name="V1" format="ascii">
1.342276e+01
4.997550e+00
1.342628e+01
5.001076e+00
5.269005e+00
6.614734e-01
5.273155e+00
6.656235e-01
1.342518e+01
5.002111e+00
1.343367e+01
5.010604e+00
5.273712e+00
6.648187e-01
5.284123e+00
6.752293e-01
1.343133e+01
5.013039e+00
1.344511e+01
5.026818e+00
5.285455e+00
6.739497e-01
5.303275e+00
6.917702e-01
1.344011e+01
5.031628e+00
1.345816e+01
5.049684e+00
5.304977e+00
6.899046e-01
5.330947e+00
7.158748e-01
1.344878e+01
5.058585e+00
1.346964e+01
5.079444e+00
5.332653e+00
7.135377e-01
5.367936e+00
7.488215e-01
1.345334e+01
5.094978e+00
1.347498e+01
5.116616e+00
5.369083e+00
7.462010e-01
5.415458e+00
7.925756e-01
1.344816e+01
5.142369e+00
1.346789e+01
5.162106e+00
5.415188e+00
7.899763e-01
5.475295e+00
8.500832e-01
1.342568e+01
5.202997e+00
1.344008e+01
5.217392e+00
5.472318e+00
8.479990e-01
5.550041e+00
9.257217e-01
1.337609e+01
5.279993e+00
1.338088e+01
5.284781e+00
5.542380e+00
9.249888e-01
5.643398e+00
1.026007e+00
1.328704e+01
5.377604e+00
1.327715e+01
5.367714e+00
5.627967e+00
1.028085e+00
5.760585e+00
1.160703e+00
1.314377e+01
5.501329e+00
1.311358e+01
5.471135e+00
5.732424e+00
1.168236e+00
5.908828e+00
1.344641e+00
1.292997e+01
5.657837e+00
1.287400e+01
5.601859e+00
5.859685e+00
1.362585e+00
6.097887e+00
1.600787e+00
1.263004e+01
5.854379e+00
1.254451e+01
5.768847e+00
6.013513e+00
1.638701e+00
6.340373e+00
1.965561e+00
1.223370e+01
6.097892e+00
1.211911e+01
5.983304e+00
6.194747e+00
2.042824e+00
6.650328e+00
2.498406e+00
1.174587e+01
6.392069e+00
1.160877e+01
6.254970e+00
6.391817e+00
2.655809e+00
7.037198e+00
3.301190e+00
1.118387e+01
6.745609e+00
1.104874e+01
6.610474e+00
6.508832e+00
3.678267e+00
7.417690e+00
4.587125e+00
1.058549e+01
7.204156e+00
1.047558e+01
7.094250e+00
6.582008e+00
5.380270e+00
7.378546e+00
6.176809e+00
1.011854e+01
7.487704e+00
1.003738e+01
7.406541e+00
7.138838e+00
6.241196e+00
7.503267e+00
6.605625e+00
9.779641e+00
7.676725e+00
9.744832e+00
7.641916e+00
7.440599e+00
6.628894e+00
7.721902e+00
6.910197e+00
9.571762e+00
7.824439e+00
9.576557e+00
7.829234e+00
7.648525e+00
6.949654e+00
7.879844e+00
7.180974e+00
9.469048e+00
7.947059e+00
9.511039e+00
7.989050e+00
7.823773e+00
7.214893e+00
8.022450e+00
7.413570e+00
9.444527e+00
8.063901e+00
9.515381e+00
8.134755e+00
7.982510e+00
7.438799e+00
8.155941e+00
7.612230e+00
9.476181e+00
8.179533e+00
9.567627e+00
8.270979e+00
8.131290e+00
7.627924e+00
8.284068e+00
7.780702e+00
9.547213e+00
8.294437e+00
9.652486e+00
8.399711e+00
8.272130e+00
7.788010e+00
8.407593e+00
7.923473e+00
9.645482e+00
8.407716e+00
9.759384e+00
8.521618e+00
8.405614e+00
7.924073e+00
8.526419e+00
8.044877e+00
9.762139e+00
8.518323e+00
9.880763e+00
8.636947e+00
8.531904e+00
8.040430e+00
8.640226e+00
8.148752e+00
9.890658e+00
8.625402e+00
1.001110e+01
8.745845e+00
8.651111e+00
8.140674e+00
8.748746e+00
8.238310e+00
1.002618e+01
8.728352e+00
1.014630e+01
8.848472e+00
8.763401e+00
8.227732e+00
8.851833e+00
8.316163e+00
1.016505e+01
8.826794e+00
1.028329e+01
8.945031e+00
8.869005e+00
8.303954e+00
8.949458e+00
8.384407e+00
1.030457e+01
8.920528e+00
1.041980e+01
9.035761e+00
8.968197e+00
8.371219e+00
9.041686e+00
8.444708e+00
1.044270e+01
9.009480e+00
1.055415e+01
9.120928e+00
9.061281e+00
8.431025e+00
9.128650e+00
8.498394e+00
1.057797e+01
9.093674e+00
1.068510e+01
9.200809e+00
9.148573e+00
8.484569e+00
9.210526e+00
8.546522e+00
1.070931e+01
9.173195e+00
1.081180e+01
9.275685e+00
9.230390e+00
8.532811e+00
9.287516e+00
8.589937e+00
1.083598e+01
9.248174e+00
1.093363e+01
9.345831e+00
9.307043e+00
8.576520e+00
9.359840e+00
8.629317e+00
1.095748e+01
9.318770e+00
1.105022e+01
9.411515e+00
9.378830e+00
8.616320e+00
9.427719e+00
8.665209e+00
1.107350e+01
9.385157e+00
1.116134e+01
9.472992e+00
9.446037e+00
8.652716e+00
9.491377e+00
8.698056e+00
1.118388e+01
9.447518e+00
1.126687e+01
9.530503e+00
9.508931e+00
8.686121e+00
9.551031e+00
8.728221e+00
1.128856e+01
9.506039e+00
1.136680e+01
9.584275e+00
9.567766e+00
8.716875e+00
9.606892e+00
8.756001e+00
1.138756e+01
9.560905e+00
1.146118e+01
9.634522e+00
9.622776e+00
8.745258e+00
9.659160e+00
8.781642e+00
1.148096e+01
9.612294e+00
1.155011e+01
9.681440e+00
9.674183e+00
8.771505e+00
9.708026e+00
8.805348e+00
1.156888e+01
9.660380e+00
1.163371e+01
9.725214e+00
9.722188e+00
8.795811e+00
9.753669e+00
8.827292e+00
1.165146e+01
9.705329e+00
1.171215e+01
9.766015e+00
9.766982e+00
8.818342e+00
9.796258e+00
8.847618e+00
1.172887e+01
9.747298e+00
1.178558e+01
9.804000e+00
9.808739e+00
8.839240e+00
9.835948e+00
8.866449e+00
1.180129e+01
9.786434e+00
1.185418e+01
9.839316e+00
9.847622e+00
8.858626e+00
9.872888e+00
8.883892e+00
1.186890e+01
9.822877e+00
1.191812e+01
9.872096e+00
9.883779e+00
8.876603e+00
9.907214e+00
8.900038e+00
1.193187e+01
9.856757e+00
1.197758e+01
9.902465e+00
9.917347e+00
8.893263e+00
9.939050e+00
8.914965e+00
1.199039e+01
9.888194e+00
1.203273e+01
9.930535e+00
9.948454e+00
8.908685e+00
9.968513e+00
8.928744e+00
1.204462e+01
9.917301e+00
1.208373e+01
9.956412e+00
9.977216e+00
8.922937e+00
9.995712e+00
8.941433e+00
1.209472e+01
9.944182e+00
1.213073e+01
9.980191e+00
1.000374e+01
8.936083e+00
1.002074e+01
8.953088e+00
1.214086e+01
9.968933e+00
1.217388e+01
1.000196e+01
1.002812e+01
8.948175e+00
1.004370e+01
8.963754e+00
1.218317e+01
9.991641e+00
1.221332e+01
1.002179e+01
1.005045e+01
8.959262e+00
1.006466e+01
8.973474e+00
1.222179e+01
1.001239e+01
1.224917e+01
1.003977e+01
1.007080e+01
8.969387e+00
1.008370e+01
8.982283e+00
1.225685e+01
1.003124e+01
1.228155e+01
1.005594e+01
1.008926e+01
8.978587e+00
1.010089e+01
8.990215e+00
1.228846e+01
1.004828e+01
1.231056e+01
1.007038e+01
1.010588e+01
8.986896e+00
1.011628e+01
8.997298e+00
1.231672e+01
1.006355e+01
1.233630e+01
1.008313e+01
1.012073e+01
8.994344e+00
1.012994e+01
9.003556e+00
1.234172e+01
1.007711e+01
1.235885e+01
1.009423e+01
1.013386e+01
9.000957e+00
1.014191e+01
9.009012e+00
1.236356e+01
1.008901e+01
1.237828e+01
1.010374e+01
1.014531e+01
9.006758e+00
1.015223e+01
9.013685e+00
1.238230e+01
1.009929e+01
1.239467e+01
1.011166e+01
1.015512e+01
9.011768e+00
1.016094e+01
9.017588e+00
1.239800e+01
1.010798e+01
1.240806e+01
1.011805e+01
1.016334e+01
9.016002e+00
1.016807e+01
9.020737e+00
1.241071e+01
1.011512e+01
1.241851e+01
1.012291e+01
1.016998e+01
9.019475e+00
1.017364e+01
9.023141e+00
1.242049e+01
1.012072e+01
1.242604e+01
1.012627e+01
1.017506e+01
9.022198e+00
1.017767e+01
9.024809e+00
1.242735e+01
1.012482e+01
1.243067e+01
1.012814e+01
1.017862e+01
9.024182e+00
1.018018e+01
9.025744e+00
1.243133e+01
1.012741e+01
1.243244e+01
1.012852e+01
1.018065e+01
9.025432e+00
1.018117e+01
9.025952e+00
</DataArray>
<DataArray type="Float32" Name="V2" format="ascii">
8.423726e-01
8.918643e-01
8.428064e-01
8.922779e-01
8.918643e-01
9.500000e-01
8.922779e-01
9.503846e-01
8.428064e-01
8.922779e-01
8.441040e-01
8.935181e-01
8.922779e-01
9.503846e-01
8.935181e-01
9.515380e-01
8.441040e-01
8.935181e-01
8.462645e-01
8.955844e-01
8.935181e-01
9.515380e-01
8.955844e-01
9.534590e-01
8.462645e-01
8.955844e-01
8.492843e-01
8.984752e-01
8.955844e-01
9.534590e-01
8.984752e-01
9.561456e-01
8.492843e-01
8.984752e-01
8.531581e-01
9.021888e-01
8.984752e-01
9.561456e-01
9.021888e-01
9.595954e-01
8.531581e-01
9.021888e-01
8.578786e-01
9.067229e-01
9.021888e-01
9.595954e-01
9.067229e-01
9.638056e-01
8.578786e-01
9.067229e-01
8.634354e-01
9.120744e-01
9.067229e-01
9.638056e-01
9.120744e-01
9.687734e-01
8.634354e-01
9.120744e-01
8.698144e-01
9.182391e-01
9.120744e-01
9.687734e-01
9.182391e-01
9.744962e-01
8.698144e-01
9.182391e-01
8.769957e-01
9.252109e-01
9.182391e-01
9.744962e-01
9.252109e-01
9.809723e-01
8.769957e-01
9.252109e-01
8.849515e-01
9.329803e-01
9.252109e-01
9.809723e-01
9.329803e-01
9.882009e-01
8.849515e-01
9.329803e-01
8.936422e-01
9.415309e-01
9.329803e-01
9.882009e-01
9.415309e-01
9.961826e-01
8.936422e-01
9.415309e-01
9.030110e-01
9.508344e-01
9.415309e-01
9.961826e-01
9.508344e-01
1.004919e+00
9.030110e-01
9.508344e-01
9.129764e-01
9.608394e-01
9.508344e-01
1.004919e+00
9.608394e-01
1.014410e+00
9.129764e-01
9.608394e-01
9.234219e-01
9.714528e-01
9.608394e-01
1.014410e+00
9.714528e-01
1.024655e+00
9.234219e-01
9.714528e-01
9.341771e-01
9.824972e-01
9.714528e-01
1.024655e+00
9.824972e-01
1.035643e+00
9.341771e-01
9.824972e-01
9.450145e-01
9.936985e-01
9.824972e-01
1.035643e+00
9.936985e-01
1.047316e+00
9.450145e-01
9.936985e-01
9.556796e-01
1.004683e+00
9.936985e-01
1.047316e+00
1.004683e+00
1.058527e+00
9.556796e-01
1.004683e+00
9.659031e-01
1.015069e+00
1.004683e+00
1.058527e+00
1.015069e+00
1.068550e+00
9.659031e-01
1.015069e+00
9.755978e-01
1.024871e+00
1.015069e+00
1.068550e+00
1.024871e+00
1.078074e+00
9.755978e-01
1.024871e+00
9.847355e-01
1.034093e+00
1.024871e+00
1.078074e+00
1.034093e+00
1.087088e+00
9.847355e-01
1.034093e+00
9.933421e-01
1.042773e+00
1.034093e+00
1.087088e+00
1.042773e+00
1.095620e+00
9.933421e-01
1.042773e+00
1.001449e+00
1.050938e+00
1.042773e+00
1.095620e+00
1.050938e+00
1.103682e+00
1.001449e+00
1.050938e+00
1.009088e+00
1.058617e+00
1.050938e+00
1.103682e+00
1.058617e+00
1.111289e+00
1.009088e+00
1.058617e+00
1.016289e+00
1.065841e+00
1.058617e+00
1.111289e+00
1.065841e+00
1.118460e+00
1.016289e+00
1.065841e+00
1.023081e+00
1.072638e+00
1.065841e+00
1.118460e+00
1.072638e+00
1.125217e+00
1.023081e+00
1.072638e+00
1.029488e+00
1.079036e+00
1.072638e+00
1.125217e+00
1.079036e+00
1.131583e+00
1.029488e+00
1.079036e+00
1.035536e+00
1.085061e+00
1.079036e+00
1.131583e+00
1.085061e+00
1.137580e+00
1.035536e+00
1.085061e+00
1.041245e+00
1.090739e+00
1.085061e+00
1.137580e+00
1.090739e+00
1.143231e+00
1.041245e+00
1.090739e+00
1.046638e+00
1.096092e+00
1.090739e+00
1.143231e+00
1.096092e+00
1.148558e+00
1.046638e+00
1.096092e+00
1.051732e+00
1.101141e+00
1.096092e+00
1.148558e+00
1.101141e+00
1.153581e+00
1.051732e+00
1.101141e+00
1.056546e+00
1.105905e+00
1.101141e+00
1.153581e+00
1.105905e+00
1.158319e+00
1.056546e+00
1.105905e+00
1.061096e+00
1.110403e+00
1.105905e+00
1.158319e+00
1.110403e+00
1.162790e+00
1.061096e+00
1.110403e+00
1.065397e+00
1.114651e+00
1.110403e+00
1.162790e+00
1.114651e+00
1.167010e+00
1.065397e+00
1.114651e+00
1.069463e+00
1.118662e+00
1.114651e+00
1.167010e+00
1.118662e+00
1.170994e+00
1.069463e+00
1.118662e+00
1.073307e+00
1.122452e+00
1.118662e+00
1.170994e+00
1.122452e+00
1.174755e+00
1.073307e+00
1.122452e+00
1.076940e+00
1.126031e+00
1.122452e+00
1.174755e+00
1.126031e+00
1.178306e+00
1.076940e+00
1.126031e+00
1.080373e+00
1.129411e+00
1.126031e+00
1.178306e+00
1.129411e+00
1.181659e+00
1.080373e+00
1.129411e+00
1.083615e+00
1.132603e+00
1.129411e+00
1.181659e+00
1.132603e+00
1.184823e+00
1.083615e+00
1.132603e+00
1.086677e+00
1.135614e+00
1.132603e+00
1.184823e+00
1.135614e+00
1.187808e+00
1.086677e+00
1.135614e+00
1.089565e+00
1.138455e+00
1.135614e+00
1.187808e+00
1.138455e+00
1.190622e+00
1.089565e+00
1.138455e+00
1.092287e+00
1.141132e+00
1.138455e+00
1.190622e+00
1.141132e+00
1.193274e+00
1.092287e+00
1.141132e+00
1.094851e+00
1.143652e+00
1.141132e+00
1.193274e+00
1.143652e+00
1.195770e+00
1.094851e+00
1.143652e+00
1.097262e+00
1.146022e+00
1.143652e+00
1.195770e+00
1.146022e+00
1.198116e+00
1.097262e+00
1.146022e+00
1.099526e+00
1.148247e+00
1.146022e+00
1.198116e+00
1.148247e+00
1.200318e+00
1.099526e+00
1.148247e+00
1.101648e+00
1.150332e+00
1.148247e+00
1.200318e+00
1.150332e+00
1.202382e+00
1.101648e+00
1.150332e+00
1.103633e+00
1.152283e+00
1.150332e+00
1.202382e+00
1.152283e+00
1.204312e+00
1.103633e+00
1.152283e+00
1.105484e+00
1.154102e+00
1.152283e+00
1.204312e+00
1.154102e+00
1.206112e+00
1.105484e+00
1.154102e+00
1.107207e+00
1.155795e+00
1.154102e+00
1.206112e+00
1.155795e+00
1.207786e+00
1.107207e+00
1.155795e+00
1.108804e+00
1.157364e+00
1.155795e+00
1.207786e+00
1.157364e+00
1.209339e+00
1.108804e+00
1.157364e+00
1.110279e+00
1.158813e+00
1.157364e+00
1.209339e+00
1.158813e+00
1.210772e+00
1.110279e+00
1.158813e+00
1.111634e+00
1.160145e+00
1.158813e+00
1.210772e+00
1.160145e+00
1.212088e+00
1.111634e+00
1.160145e+00
1.112872e+00
1.161361e+00
1.160145e+00
1.212088e+00
1.161361e+00
1.213291e+00
1.112872e+00
1.161361e+00
1.113995e+00
1.162465e+00
1.161361e+00
1.213291e+00
1.162465e+00
1.214383e+00
1.113995e+00
1.162465e+00
1.115006e+00
1.163458e+00
1.162465e+00
1.214383e+00
1.163458e+00
1.215365e+00
1.115006e+00
1.163458e+00
1.115905e+00
1.164342e+00
1.163458e+00
1.215365e+00
1.164342e+00
1.216239e+00
1.115905e+00
1.164342e+00
1.116695e+00
1.165118e+00
1.164342e+00
1.216239e+00
1.165118e+00
1.217007e+00
1.116695e+00
1.165118e+00
1.117378e+00
1.165789e+00
1.165118e+00
1.217007e+00
1.165789e+00
1.217669e+00
1.117378e+00
1.165789e+00
1.117953e+00
1.166354e+00
1.165789e+00
1.217669e+00
1.166354e+00
1.218228e+00
1.117953e+00
1.166354e+00
1.118422e+00
1.166815e+00
1.166354e+00
1.218228e+00
1.166815e+00
1.218685e+00
1.118422e+00
1.166815e+00
1.118787e+00
1.167173e+00
1.166815e+00
1.218685e+00
1.167173e+00
1.219038e+00
1.118787e+00
1.167173e+00
1.119046e+00
1.167428e+00
1.167173e+00
1.219038e+00
1.167428e+00
1.219291e+00
1.119046e+00
1.167428e+00
1.119202e+00
1.167582e+00
1.167428e+00
1.219291e+00
1.167582e+00
1.219442e+00
1.119202e+00
1.167582e+00
1.119254e+00
1.167632e+00
1.167582e+00
1.219442e+00
1.167632e+00
1.219493e+00
</DataArray>
<DataArray type="Float32" Name="V3" format="ascii">
0.000000e+00
0.000000e+00
6.246625e-03
5.010828e-03
0.000000e+00
0.000000e+00
5.010828e-03
3.578318e-03
6.246625e-03
5.010828e-03
1.245069e-02
9.984411e-03
5.010828e-03
3.578318e-03
9.984411e-03
7.125394e-03
1.245069e-02
9.984411e-03
1.856910e-02
1.488361e-02
9.984411e-03
7.125394e-03
1.488361e-02
1.061049e-02
1.856910e-02
1.488361e-02
2.455831e-02
1.967132e-02
1.488361e-02
1.061049e-02
1.967132e-02
1.400369e-02
2.455831e-02
1.967132e-02
3.037374e-02
2.431059e-02
1.967132e-02
1.400369e-02
2.431059e-02
1.727637e-02
3.037374e-02
2.431059e-02
3.596940e-02
2.876458e-02
2.431059e-02
1.727637e-02
2.876458e-02
2.040166e-02
3.596940e-02
2.876458e-02
4.129750e-02
3.299656e-02
2.876458e-02
2.040166e-02
3.299656e-02
2.335488e-02
4.129750e-02
3.299656e-02
4.630795e-02
3.696979e-02
3.299656e-02
2.335488e-02
3.696979e-02
2.611386e-02
4.630795e-02
3.696979e-02
5.094803e-02
4.064733e-02
3.696979e-02
2.611386e-02
4.064733e-02
2.865919e-02
5.094803e-02
4.064733e-02
5.516226e-02
4.399160e-02
4.064733e-02
2.865919e-02
4.399160e-02
3.097407e-02
5.516226e-02
4.399160e-02
5.889294e-02
4.696364e-02
4.399160e-02
3.097407e-02
4.696364e-02
3.304351e-02
5.889294e-02
4.696364e-02
6.208181e-02
4.952175e-02
4.696364e-02
3.304351e-02
4.952175e-02
3.485242e-02
6.208181e-02
4.952175e-02
6.467385e-02
5.161923e-02
4.952175e-02
3.485242e-02
5.161923e-02
3.638177e-02
6.467385e-02
5.161923e-02
6.662425e-02
5.320111e-02
5.161923e-02
3.638177e-02
5.320111e-02
3.760197e-02
6.662425e-02
5.320111e-02
6.790785e-02
5.420688e-02
5.320111e-02
3.760197e-02
5.420688e-02
3.846418e-02
6.790785e-02
5.420688e-02
6.853907e-02
5.462020e-02
5.420688e-02
3.846418e-02
5.462020e-02
3.881470e-02
6.853907e-02
5.462020e-02
6.867127e-02
5.467072e-02
5.462020e-02
3.881470e-02
5.467072e-02
3.875252e-02
6.867127e-02
5.467072e-02
6.837988e-02
5.445864e-02
5.467072e-02
3.875252e-02
5.445864e-02
3.905934e-02
6.837988e-02
5.445864e-02
6.781097e-02
5.417771e-02
5.445864e-02
3.905934e-02
5.417771e-02
3.947742e-02
6.781097e-02
5.417771e-02
6.706700e-02
5.389893e-02
5.417771e-02
3.947742e-02
5.389893e-02
3.993892e-02
6.706700e-02
5.389893e-02
6.620206e-02
5.361247e-02
5.389893e-02
3.993892e-02
5.361247e-02
4.040635e-02
6.620206e-02
5.361247e-02
6.525185e-02
5.330199e-02
5.361247e-02
4.040635e-02
5.330199e-02
4.084958e-02
6.525185e-02
5.330199e-02
6.423770e-02
5.295358e-02
5.330199e-02
4.084958e-02
5.295358e-02
4.124463e-02
6.423770e-02
5.295358e-02
6.317293e-02
5.255745e-02
5.295358e-02
4.124463e-02
5.255745e-02
4.157309e-02
6.317293e-02
5.255745e-02
6.206583e-02
5.210703e-02
5.255745e-02
4.157309e-02
5.210703e-02
4.182157e-02
6.206583e-02
5.210703e-02
6.092157e-02
5.159803e-02
5.210703e-02
4.182157e-02
5.159803e-02
4.198096e-02
6.092157e-02
5.159803e-02
5.974324e-02
5.102780e-02
5.159803e-02
4.198096e-02
5.102780e-02
4.204560e-02
5.974324e-02
5.102780e-02
5.853264e-02
5.039489e-02
5.102780e-02
4.204560e-02
5.039489e-02
4.201253e-02
5.853264e-02
5.039489e-02
5.729074e-02
4.969872e-02
5.039489e-02
4.201253e-02
4.969872e-02
4.188086e-02
5.729074e-02
4.969872e-02
5.601801e-02
4.893944e-02
4.969872e-02
4.188086e-02
4.893944e-02
4.165120e-02
5.601801e-02
4.893944e-02
5.471464e-02
4.811770e-02
4.893944e-02
4.165120e-02
4.811770e-02
4.132532e-02
5.471464e-02
4.811770e-02
5.338068e-02
4.723460e-02
4.811770e-02
4.132532e-02
4.723460e-02
4.090576e-02
5.338068e-02
4.723460e-02
5.201615e-02
4.629153e-02
4.723460e-02
4.090576e-02
4.629153e-02
4.039562e-02
5.201615e-02
4.629153e-02
5.062111e-02
4.529013e-02
4.629153e-02
4.039562e-02
4.529013e-02
3.979836e-02
5.062111e-02
4.529013e-02
4.919568e-02
4.423221e-02
4.529013e-02
3.979836e-02
4.423221e-02
3.911768e-02
4.919568e-02
4.423221e-02
4.774007e-02
4.311974e-02
4.423221e-02
3.911768e-02
4.311974e-02
3.835739e-02
4.774007e-02
4.311974e-02
4.625461e-02
4.195474e-02
4.311974e-02
3.835739e-02
4.195474e-02
3.752133e-02
4.625461e-02
4.195474e-02
4.473973e-02
4.073931e-02
4.195474e-02
3.752133e-02
4.073931e-02
3.661336e-02
4.473973e-02
4.073931e-02
4.319594e-02
3.947558e-02
4.073931e-02
3.661336e-02
3.947558e-02
3.563728e-02
4.319594e-02
3.947558e-02
4.162388e-02
3.816571e-02
3.947558e-02
3.563728e-02
3.816571e-02
3.459679e-02
4.162388e-02
3.816571e-02
4.002427e-02
3.681184e-02
3.816571e-02
3.459679e-02
3.681184e-02
3.349553e-02
4.002427e-02
3.681184e-02
3.839789e-02
3.541612e-02
3.681184e-02
3.349553e-02
3.541612e-02
3.233701e-02
3.839789e-02
3.541612e-02
3.674564e-02
3.398069e-02
3.541612e-02
3.233701e-02
3.398069e-02
3.112466e-02
3.674564e-02
3.398069e-02
3.506845e-02
3.250764e-02
3.398069e-02
3.112466e-02
3.250764e-02
2.986176e-02
3.506845e-02
3.250764e-02
3.336731e-02
3.099907e-02
3.250764e-02
2.986176e-02
3.099907e-02
2.855153e-02
3.336731e-02
3.099907e-02
3.164328e-02
2.945704e-02
3.099907e-02
2.855153e-02
2.945704e-02
2.719704e-02
3.164328e-02
2.945704e-02
2.989746e-02
2.788358e-02
2.945704e-02
2.719704e-02
2.788358e-02
2.580128e-02
2.989746e-02
2.788358e-02
2.813097e-02
2.628070e-02
2.788358e-02
2.580128e-02
2.628070e-02
2.436715e-02
2.813097e-02
2.628070e-02
2.634500e-02
2.465037e-02
2.628070e-02
2.436715e-02
2.465037e-02
2.289745e-02
2.634500e-02
2.465037e-02
2.454074e-02
2.299456e-02
2.465037e-02
2.289745e-02
2.299456e-02
2.139491e-02
2.454074e-02
2.299456e-02
2.271941e-02
2.131520e-02
2.299456e-02
2.139491e-02
2.131520e-02
1.986217e-02
2.271941e-02
2.131520e-02
2.088226e-02
1.961417e-02
2.131520e-02
1.986217e-02
1.961417e-02
1.830180e-02
2.088226e-02
1.961417e-02
1.903055e-02
1.789338e-02
1.961417e-02
1.830180e-02
1.789338e-02
1.671633e-02
1.903055e-02
1.789338e-02
1.716557e-02
1.615467e-02
1.789338e-02
1.671633e-02
1.615467e-02
1.510820e-02
1.716557e-02
1.615467e-02
1.528861e-02
1.439991e-02
1.615467e-02
1.510820e-02
1.439991e-02
1.347982e-02
1.528861e-02
1.439991e-02
1.340098e-02
1.263090e-02
1.439991e-02
1.347982e-02
1.263090e-02
1.183355e-02
1.340098e-02
1.263090e-02
1.150398e-02
1.084946e-02
1.263090e-02
1.183355e-02
1.084946e-02
1.017171e-02
1.150398e-02
1.084946e-02
9.598956e-03
9.057405e-03
1.084946e-02
1.017171e-02
9.057405e-03
8.496587e-03
9.598956e-03
9.057405e-03
7.687224e-03
7.256506e-03
9.057405e-03
8.496587e-03
7.256506e-03
6.810438e-03
7.687224e-03
7.256506e-03
5.770121e-03
5.448547e-03
7.256506e-03
6.810438e-03
5.448547e-03
5.115498e-03
5.770121e-03
5.448547e-03
3.848988e-03
3.635300e-03
5.448547e-03
5.115498e-03
3.635300e-03
3.413979e-03
3.848988e-03
3.635300e-03
1.925167e-03
1.818530e-03
3.635300e-03
3.413979e-03
1.818530e-03
1.708083e-03
1.925167e-03
1.818530e-03
0.000000e+00
0.000000e+00
1.818530e-03
1.708083e-03
0.000000e+00
0.000000e+00
</DataArray>
<DataArray type="Float32" Name="V4" format="ascii">
8.500000e-01
9.250000e-01
8.500000e-01
9.250000e-01
9.250000e-01
1.000000e+00