<?xml version="1.0"?>
<VTKFile type="UnstructuredGrid" version="0.1" byte_order="LittleEndian" compressor="vtkZLibDataCompressor">
<UnstructuredGrid>
<Piece NumberOfPoints="504" NumberOfCells="126">
<Points>
<DataArray type="Float32" NumberOfComponents="3" format="ascii">
0.000000e+00 4.136806e-01 0.000000e+00
0.000000e+00 4.365506e-01 0.000000e+00
4.009238e-02 4.136890e-01 0.000000e+00
4.008997e-02 4.365522e-01 0.000000e+00
0.000000e+00 4.365506e-01 0.000000e+00
0.000000e+00 4.634375e-01 0.000000e+00
4.008997e-02 4.365522e-01 0.000000e+00
4.008952e-02 4.634375e-01 0.000000e+00
4.009238e-02 4.136890e-01 0.000000e+00
4.008997e-02 4.365522e-01 0.000000e+00
8.018373e-02 4.137015e-01 0.000000e+00
8.017884e-02 4.365589e-01 0.000000e+00
4.008997e-02 4.365522e-01 0.000000e+00
4.008952e-02 4.634375e-01 0.000000e+00
8.017884e-02 4.365589e-01 0.000000e+00
8.017784e-02 4.634375e-01 0.000000e+00
8.018373e-02 4.137015e-01 0.000000e+00
8.017884e-02 4.365589e-01 0.000000e+00
1.202725e-01 4.137221e-01 0.000000e+00
1.202652e-01 4.365700e-01 0.000000e+00
8.017884e-02 4.365589e-01 0.000000e+00
8.017784e-02 4.634375e-01 0.000000e+00
1.202652e-01 4.365700e-01 0.000000e+00
1.202637e-01 4.634375e-01 0.000000e+00
1.202725e-01 4.137221e-01 0.000000e+00
1.202652e-01 4.365700e-01 0.000000e+00
1.603576e-01 4.137509e-01 0.000000e+00
1.603478e-01 4.365857e-01 0.000000e+00
1.202652e-01 4.365700e-01 0.000000e+00
1.202637e-01 4.634375e-01 0.000000e+00
1.603478e-01 4.365857e-01 0.000000e+00
1.603458e-01 4.634375e-01 0.000000e+00
1.603576e-01 4.137509e-01 0.000000e+00
1.603478e-01 4.365857e-01 0.000000e+00
2.004376e-01 4.137879e-01 0.000000e+00
2.004254e-01 4.366057e-01 0.000000e+00
1.603478e-01 4.365857e-01 0.000000e+00
1.603458e-01 4.634375e-01 0.000000e+00
2.004254e-01 4.366057e-01 0.000000e+00
2.004229e-01 4.634375e-01 0.000000e+00
2.004376e-01 4.137879e-01 0.000000e+00
2.004254e-01 4.366057e-01 0.000000e+00
2.405112e-01 4.138332e-01 0.000000e+00
2.404967e-01 4.366302e-01 0.000000e+00
2.004254e-01 4.366057e-01 0.000000e+00
2.004229e-01 4.634375e-01 0.000000e+00
2.404967e-01 4.366302e-01 0.000000e+00
2.404938e-01 4.634375e-01 0.000000e+00
2.405112e-01 4.138332e-01 0.000000e+00
2.404967e-01 4.366302e-01 0.000000e+00
2.805773e-01 4.138866e-01 0.000000e+00
2.805605e-01 4.366591e-01 0.000000e+00
2.404967e-01 4.366302e-01 0.000000e+00
2.404938e-01 4.634375e-01 0.000000e+00
2.805605e-01 4.366591e-01 0.000000e+00
2.805572e-01 4.634375e-01 0.000000e+00
2.805773e-01 4.138866e-01 0.000000e+00
2.805605e-01 4.366591e-01 0.000000e+00
3.206344e-01 4.139481e-01 0.000000e+00
3.206154e-01 4.366924e-01 0.000000e+00
2.805605e-01 4.366591e-01 0.000000e+00
2.805572e-01 4.634375e-01 0.000000e+00
3.206154e-01 4.366924e-01 0.000000e+00
3.206118e-01 4.634375e-01 0.000000e+00
3.206344e-01 4.139481e-01 0.000000e+00
3.206154e-01 4.366924e-01 0.000000e+00
3.606813e-01 4.140176e-01 0.000000e+00
3.606601e-01 4.367300e-01 0.000000e+00
3.206154e-01 4.366924e-01 0.000000e+00
3.206118e-01 4.634375e-01 0.000000e+00
3.606601e-01 4.367300e-01 0.000000e+00
3.606563e-01 4.634375e-01 0.000000e+00
3.606813e-01 4.140176e-01 0.000000e+00
3.606601e-01 4.367300e-01 0.000000e+00
4.007165e-01 4.140952e-01 0.000000e+00
4.006933e-01 4.367720e-01 0.000000e+00
3.606601e-01 4.367300e-01 0.000000e+00
3.606563e-01 4.634375e-01 0.000000e+00
4.006933e-01 4.367720e-01 0.000000e+00
4.006893e-01 4.634375e-01 0.000000e+00
4.007165e-01 4.140952e-01 0.000000e+00
4.006933e-01 4.367720e-01 0.000000e+00
4.407387e-01 4.141808e-01 0.000000e+00
4.407136e-01 4.368183e-01 0.000000e+00
4.006933e-01 4.367720e-01 0.000000e+00
4.006893e-01 4.634375e-01 0.000000e+00
4.407136e-01 4.368183e-01 0.000000e+00
4.407095e-01 4.634375e-01 0.000000e+00
4.407387e-01 4.141808e-01 0.000000e+00
4.407136e-01 4.368183e-01 0.000000e+00
4.807466e-01 4.142743e-01 0.000000e+00
4.807196e-01 4.368689e-01 0.000000e+00
4.407136e-01 4.368183e-01 0.000000e+00
4.407095e-01 4.634375e-01 0.000000e+00
4.807196e-01 4.368689e-01 0.000000e+00
4.807155e-01 4.634375e-01 0.000000e+00
4.807466e-01 4.142743e-01 0.000000e+00
4.807196e-01 4.368689e-01 0.000000e+00
5.207386e-01 4.143756e-01 0.000000e+00
5.207098e-01 4.369238e-01 0.000000e+00
4.807196e-01 4.368689e-01 0.000000e+00
4.807155e-01 4.634375e-01 0.000000e+00
5.207098e-01 4.369238e-01 0.000000e+00
5.207059e-01 4.634375e-01 0.000000e+00
5.207386e-01 4.143756e-01 0.000000e+00
5.207098e-01 4.369238e-01 0.000000e+00
5.607132e-01 4.144847e-01 0.000000e+00
5.606829e-01 4.369828e-01 0.000000e+00
5.207098e-01 4.369238e-01 0.000000e+00
5.207059e-01 4.634375e-01 0.000000e+00
5.606829e-01 4.369828e-01 0.000000e+00
5.606793e-01 4.634375e-01 0.000000e+00
5.607132e-01 4.144847e-01 0.000000e+00
5.606829e-01 4.369828e-01 0.000000e+00
6.006690e-01 4.146015e-01 0.000000e+00
6.006374e-01 4.370461e-01 0.000000e+00
5.606829e-01 4.369828e-01 0.000000e+00
5.606793e-01 4.634375e-01 0.000000e+00
6.006374e-01 4.370461e-01 0.000000e+00
6.006342e-01 4.634375e-01 0.000000e+00
6.006690e-01 4.146015e-01 0.000000e+00
6.006374e-01 4.370461e-01 0.000000e+00
6.406043e-01 4.147259e-01 0.000000e+00
6.405716e-01 4.371135e-01 0.000000e+00
6.006374e-01 4.370461e-01 0.000000e+00
6.006342e-01 4.634375e-01 0.000000e+00
6.405716e-01 4.371135e-01 0.000000e+00
6.405690e-01 4.634375e-01 0.000000e+00
6.406043e-01 4.147259e-01 0.000000e+00
6.405716e-01 4.371135e-01 0.000000e+00
6.805176e-01 4.148579e-01 0.000000e+00
6.804840e-01 4.371849e-01 0.000000e+00
6.405716e-01 4.371135e-01 0.000000e+00
6.405690e-01 4.634375e-01 0.000000e+00
6.804840e-01 4.371849e-01 0.000000e+00
6.804824e-01 4.634375e-01 0.000000e+00
6.805176e-01 4.148579e-01 0.000000e+00
6.804840e-01 4.371849e-01 0.000000e+00
7.204071e-01 4.149973e-01 0.000000e+00
7.203731e-01 4.372605e-01 0.000000e+00
6.804840e-01 4.371849e-01 0.000000e+00
6.804824e-01 4.634375e-01 0.000000e+00
7.203731e-01 4.372605e-01 0.000000e+00
7.203727e-01 4.634375e-01 0.000000e+00
7.204071e-01 4.149973e-01 0.000000e+00
7.203731e-01 4.372605e-01 0.000000e+00
7.602712e-01 4.151441e-01 0.000000e+00
7.602371e-01 4.373400e-01 0.000000e+00
7.203731e-01 4.372605e-01 0.000000e+00
7.203727e-01 4.634375e-01 0.000000e+00
7.602371e-01 4.373400e-01 0.000000e+00
7.602383e-01 4.634375e-01 0.000000e+00
7.602712e-01 4.151441e-01 0.000000e+00
7.602371e-01 4.373400e-01 0.000000e+00
8.001080e-01 4.152981e-01 0.000000e+00
8.000742e-01 4.374235e-01 0.000000e+00
7.602371e-01 4.373400e-01 0.000000e+00
7.602383e-01 4.634375e-01 0.000000e+00
8.000742e-01 4.374235e-01 0.000000e+00
8.000775e-01 4.634375e-01 0.000000e+00
8.001080e-01 4.152981e-01 0.000000e+00
8.000742e-01 4.374235e-01 0.000000e+00
8.399157e-01 4.154593e-01 0.000000e+00
8.398829e-01 4.375110e-01 0.000000e+00
8.000742e-01 4.374235e-01 0.000000e+00
8.000775e-01 4.634375e-01 0.000000e+00
8.398829e-01 4.375110e-01 0.000000e+00
8.398889e-01 4.634375e-01 0.000000e+00
8.399157e-01 4.154593e-01 0.000000e+00
8.398829e-01 4.375110e-01 0.000000e+00
8.796923e-01 4.156275e-01 0.000000e+00
8.796612e-01 4.376023e-01 0.000000e+00
8.398829e-01 4.375110e-01 0.000000e+00
8.398889e-01 4.634375e-01 0.000000e+00
8.796612e-01 4.376023e-01 0.000000e+00
8.796705e-01 4.634375e-01 0.000000e+00
8.796923e-01 4.156275e-01 0.000000e+00
8.796612e-01 4.376023e-01 0.000000e+00
9.194357e-01 4.158027e-01 0.000000e+00
9.194072e-01 4.376975e-01 0.000000e+00
8.796612e-01 4.376023e-01 0.000000e+00
8.796705e-01 4.634375e-01 0.000000e+00
9.194072e-01 4.376975e-01 0.000000e+00
9.194209e-01 4.634375e-01 0.000000e+00
9.194357e-01 4.158027e-01 0.000000e+00
9.194072e-01 4.376975e-01 0.000000e+00
9.591437e-01 4.159848e-01 0.000000e+00
9.591191e-01 4.377965e-01 0.000000e+00
9.194072e-01 4.376975e-01 0.000000e+00
9.194209e-01 4.634375e-01 0.000000e+00
9.591191e-01 4.377965e-01 0.000000e+00
9.591382e-01 4.634375e-01 0.000000e+00
9.591437e-01 4.159848e-01 0.000000e+00
9.591191e-01 4.377965e-01 0.000000e+00
9.988142e-01 4.161736e-01 0.000000e+00
9.987948e-01 4.378993e-01 0.000000e+00
9.591191e-01 4.377965e-01 0.000000e+00
9.591382e-01 4.634375e-01 0.000000e+00
9.987948e-01 4.378993e-01 0.000000e+00
9.988208e-01 4.634375e-01 0.000000e+00
9.988142e-01 4.161736e-01 0.000000e+00
9.987948e-01 4.378993e-01 0.000000e+00
1.038445e+00 4.163690e-01 0.000000e+00
1.038432e+00 4.380059e-01 0.000000e+00
9.987948e-01 4.378993e-01 0.000000e+00
9.988208e-01 4.634375e-01 0.000000e+00
1.038432e+00 4.380059e-01 0.000000e+00
1.038467e+00 4.634375e-01 0.000000e+00
1.038445e+00 4.163690e-01 0.000000e+00
1.038432e+00 4.380059e-01 0.000000e+00
1.078032e+00 4.165710e-01 0.000000e+00
1.078030e+00 4.381162e-01 0.000000e+00
1.038432e+00 4.380059e-01 0.000000e+00
1.038467e+00 4.634375e-01 0.000000e+00
1.078030e+00 4.381162e-01 0.000000e+00
1.078075e+00 4.634375e-01 0.000000e+00
1.078032e+00 4.165710e-01 0.000000e+00
1.078030e+00 4.381162e-01 0.000000e+00
1.117575e+00 4.167794e-01 0.000000e+00
1.117584e+00 4.382303e-01 0.000000e+00
1.078030e+00 4.381162e-01 0.000000e+00
1.078075e+00 4.634375e-01 0.000000e+00
1.117584e+00 4.382303e-01 0.000000e+00
1.117644e+00 4.634375e-01 0.000000e+00
1.117575e+00 4.167794e-01 0.000000e+00
1.117584e+00 4.382303e-01 0.000000e+00
1.157068e+00 4.169942e-01 0.000000e+00
1.157095e+00 4.383483e-01 0.000000e+00
1.117584e+00 4.382303e-01 0.000000e+00
1.117644e+00 4.634375e-01 0.000000e+00
1.157095e+00 4.383483e-01 0.000000e+00
1.157173e+00 4.634375e-01 0.000000e+00
1.157068e+00 4.169942e-01 0.000000e+00
1.157095e+00 4.383483e-01 0.000000e+00
1.196510e+00 4.172152e-01 0.000000e+00
1.196558e+00 4.384702e-01 0.000000e+00
1.157095e+00 4.383483e-01 0.000000e+00
1.157173e+00 4.634375e-01 0.000000e+00
1.196558e+00 4.384702e-01 0.000000e+00
1.196659e+00 4.634375e-01 0.000000e+00
1.196510e+00 4.172152e-01 0.000000e+00
1.196558e+00 4.384702e-01 0.000000e+00
1.235896e+00 4.174424e-01 0.000000e+00
1.235972e+00 4.385961e-01 0.000000e+00
1.196558e+00 4.384702e-01 0.000000e+00
1.196659e+00 4.634375e-01 0.000000e+00
1.235972e+00 4.385961e-01 0.000000e+00
1.236103e+00 4.634375e-01 0.000000e+00
1.235896e+00 4.174424e-01 0.000000e+00
[...]
<PointData>
<DataArray type="Float32" Name="V1" format="ascii">
2.834869e+02
1.146322e+02
2.835935e+02
1.147388e+02
1.187020e+02
3.338134e+01
1.187455e+02
3.342487e+01
2.836285e+02
1.146741e+02
2.838884e+02
1.149341e+02
1.187825e+02
3.340887e+01
1.189046e+02
3.353094e+01
2.839796e+02
1.148230e+02
2.844046e+02
1.152480e+02
1.189745e+02
3.349434e+01
1.191841e+02
3.370390e+01
2.845484e+02
1.150876e+02
2.851400e+02
1.156793e+02
1.192856e+02
3.364537e+01
1.195823e+02
3.394203e+01
2.853359e+02
1.154686e+02
2.860964e+02
1.162291e+02
1.197161e+02
3.386193e+01
1.201003e+02
3.424609e+01
2.863444e+02
1.159669e+02
2.872761e+02
1.168986e+02
1.202671e+02
3.414451e+01
1.207396e+02
3.461699e+01
2.875763e+02
1.165840e+02
2.886819e+02
1.176896e+02
1.209400e+02
3.449381e+01
1.215020e+02
3.505577e+01
2.890349e+02
1.173216e+02
2.903173e+02
1.186040e+02
1.217365e+02
3.491077e+01
1.223894e+02
3.556366e+01
2.907239e+02
1.181817e+02
2.921866e+02
1.196444e+02
1.226587e+02
3.539654e+01
1.234042e+02
3.614209e+01
2.926477e+02
1.191666e+02
2.942945e+02
1.208134e+02
1.237091e+02
3.595245e+01
1.245493e+02
3.679268e+01
2.948112e+02
1.202788e+02
2.966465e+02
1.221142e+02
1.248904e+02
3.658006e+01
1.258276e+02
3.751727e+01
2.972199e+02
1.215216e+02
2.992487e+02
1.235504e+02
1.262059e+02
3.728115e+01
1.272427e+02
3.831797e+01
2.998802e+02
1.228981e+02
3.021079e+02
1.251259e+02
1.276592e+02
3.805774e+01
1.287985e+02
3.919710e+01
3.027991e+02
1.244124e+02
3.052317e+02
1.268450e+02
1.292542e+02
3.891209e+01
1.304994e+02
4.015727e+01
3.059842e+02
1.260685e+02
3.086285e+02
1.287128e+02
1.309955e+02
3.984673e+01
1.323501e+02
4.120136e+01
3.094441e+02
1.278713e+02
3.123073e+02
1.307344e+02
1.328880e+02
4.086448e+01
1.343561e+02
4.233260e+01
3.131881e+02
1.298258e+02
3.162782e+02
1.329158e+02
1.349371e+02
4.196847e+01
1.365232e+02
4.355452e+01
3.172264e+02
1.319378e+02
3.205521e+02
1.352635e+02
1.371489e+02
4.316217e+01
1.388578e+02
4.487107e+01
3.215699e+02
1.342136e+02
3.251407e+02
1.377844e+02
1.395299e+02
4.444941e+01
1.413671e+02
4.628658e+01
3.262305e+02
1.366600e+02
3.300568e+02
1.404862e+02
1.420873e+02
4.583447e+01
1.440587e+02
4.780588e+01
3.312213e+02
1.392845e+02
3.353141e+02
1.433774e+02
1.448291e+02
4.732207e+01
1.469414e+02
4.943430e+01
3.365560e+02
1.420955e+02
3.409274e+02
1.464670e+02
1.477639e+02
4.891744e+01
1.500242e+02
5.117778e+01
3.422494e+02
1.451020e+02
3.469125e+02
1.497651e+02
1.509012e+02
5.062644e+01
1.533177e+02
5.304296e+01
3.483175e+02
1.483139e+02
3.532861e+02
1.532825e+02
1.542513e+02
5.245559e+01
1.568329e+02
5.503725e+01
3.547768e+02
1.517419e+02
3.600660e+02
1.570312e+02
1.578256e+02
5.441223e+01
1.605824e+02
5.716900e+01
3.616450e+02
1.553982e+02
3.672708e+02
1.610240e+02
1.616367e+02
5.650461e+01
1.645798e+02
5.944767e+01
3.689406e+02
1.592957e+02
3.749199e+02
1.652750e+02
1.656983e+02
5.874211e+01
1.688403e+02
6.188405e+01
3.766824e+02
1.634491e+02
3.830331e+02
1.697998e+02
1.700256e+02
6.113546e+01
1.733807e+02
6.449052e+01
3.848895e+02
1.678743e+02
3.916304e+02
1.746152e+02
1.746353e+02
6.369699e+01
1.782197e+02
6.728143e+01
3.935811e+02
1.725891e+02
4.007316e+02
1.797396e+02
1.795460e+02
6.644107e+01
1.833785e+02
7.027356e+01
4.027752e+02
1.776134e+02
4.103552e+02
1.851934e+02
1.847785e+02
6.938452e+01
1.888808e+02
7.348677e+01
4.124882e+02
1.829695e+02
4.205176e+02
1.909989e+02
1.903560e+02
7.254733e+01
1.947535e+02
7.694478e+01
4.227334e+02
1.886825e+02
4.312315e+02
1.971805e+02
1.963047e+02
7.595345e+01
2.010275e+02
8.067627e+01
4.335195e+02
1.947810e+02
4.425038e+02
2.037654e+02
2.026541e+02
7.963196e+01
2.077385e+02
8.471637e+01
4.448475e+02
2.012979e+02
4.543328e+02
2.107832e+02
2.094381e+02
8.361858e+01
2.149281e+02
8.910861e+01
4.567079e+02
2.082710e+02
4.667040e+02
2.182671e+02
2.166955e+02
8.795779e+01
2.226453e+02
9.390766e+01
4.690758e+02
2.157444e+02
4.795845e+02
2.262532e+02
2.244712e+02
9.270570e+01
2.309487e+02
9.918315e+01
4.819047e+02
2.237698e+02
4.929160e+02
2.347812e+02
2.328174e+02
9.793413e+01
2.399082e+02
1.050249e+02
4.951184e+02
2.324079e+02
5.066043e+02
2.438939e+02
2.417946e+02
1.037365e+02
2.496091e+02
1.115509e+02
5.086006e+02
2.417298e+02
5.205070e+02
2.536362e+02
2.514723e+02
1.102369e+02
2.601541e+02
1.189186e+02
5.221806e+02
2.518180e+02
5.344166e+02
2.640539e+02
2.619271e+02
1.176035e+02
2.716669e+02
1.273433e+02
5.356154e+02
2.627674e+02
5.480413e+02
2.751933e+02
2.732335e+02
1.260731e+02
2.842899e+02
1.371294e+02
5.485597e+02
2.746931e+02
5.609803e+02
2.871137e+02
2.854326e+02
1.359964e+02
2.981684e+02
1.487322e+02
5.604942e+02
2.877802e+02
5.726906e+02
2.999765e+02
2.984275e+02
1.479552e+02
3.133943e+02
1.629221e+02
5.704504e+02
3.025610e+02
5.824789e+02
3.145895e+02
3.117436e+02
1.631353e+02
3.299738e+02
1.813654e+02
5.757475e+02
3.212592e+02
5.897982e+02
3.353099e+02
3.219692e+02
1.867354e+02
3.482745e+02
2.130406e+02
5.816302e+02
3.448217e+02
5.953977e+02
3.585892e+02
3.422776e+02
2.194126e+02
3.603132e+02
2.374482e+02
5.924037e+02
3.613726e+02
6.077169e+02
3.766858e+02
3.594221e+02
2.375304e+02
3.755128e+02
2.536211e+02
6.080596e+02
3.761535e+02
6.251259e+02
3.932198e+02
3.763586e+02
2.530093e+02
3.916158e+02
2.682665e+02
6.271058e+02
3.910468e+02
6.452667e+02
4.092077e+02
3.934118e+02
2.670451e+02
4.078447e+02
2.814780e+02
6.482000e+02
4.060351e+02
6.668529e+02
4.246881e+02
4.101831e+02
2.798903e+02
4.237681e+02
2.934753e+02
6.703494e+02
4.209092e+02
6.889764e+02
4.395361e+02
4.264345e+02
2.916683e+02
4.391374e+02
3.043712e+02
6.927694e+02
4.354270e+02
7.109292e+02
4.535869e+02
4.419684e+02
3.024548e+02
4.537481e+02
3.142345e+02
7.148216e+02
4.493600e+02
7.321433e+02
4.666817e+02
4.566151e+02
3.122963e+02
4.674270e+02
3.231082e+02
7.359815e+02
4.625064e+02
7.521561e+02
4.786809e+02
4.702268e+02
3.212182e+02
4.800264e+02
3.310179e+02
7.558176e+02
4.746936e+02
7.705906e+02
4.894666e+02
4.826767e+02
3.292323e+02
4.914224e+02
3.379780e+02
7.739766e+02
4.857774e+02
7.871407e+02
4.989414e+02
4.938575e+02
3.363407e+02
5.015117e+02
3.439950e+02
7.901717e+02
4.956384e+02
8.015601e+02
5.070268e+02
5.036799e+02
3.425403e+02
5.102101e+02
3.490705e+02
8.041726e+02
5.041798e+02
8.136536e+02
5.136608e+02
5.120710e+02
3.478246e+02
5.174500e+02
3.532037e+02
8.157983e+02
5.113240e+02
8.232704e+02
5.187961e+02
5.189725e+02
3.521862e+02
5.231784e+02
3.563921e+02
8.249098e+02
5.170101e+02
8.302981e+02
5.223984e+02
5.243391e+02
3.556175e+02
5.273551e+02
3.586335e+02
8.314054e+02
5.211923e+02
8.346584e+02
5.244453e+02
5.281377e+02
3.581119e+02
5.299520e+02
3.599261e+02
8.352163e+02
5.238376e+02
8.363039e+02
5.249253e+02
5.303458e+02
3.596638e+02
5.309514e+02
3.602693e+02
</DataArray>
<DataArray type="Float32" Name="V2" format="ascii">
4.136806e-01
4.365506e-01
4.145599e-01
4.374160e-01
4.365506e-01
4.634375e-01
4.374160e-01
4.642930e-01
4.145599e-01
4.374160e-01
4.171840e-01
4.400128e-01
4.374160e-01
4.642930e-01
4.400128e-01
4.668580e-01
4.171840e-01
4.400128e-01
4.215532e-01
4.443367e-01
4.400128e-01
4.668580e-01
4.443367e-01
4.711290e-01
4.215532e-01
4.443367e-01
4.276613e-01
4.503817e-01
4.443367e-01
4.711290e-01
4.503817e-01
4.770999e-01
4.276613e-01
4.503817e-01
4.354998e-01
4.581389e-01
4.503817e-01
4.770999e-01
4.581389e-01
4.847622e-01
4.354998e-01
4.581389e-01
4.450573e-01
4.675976e-01
4.581389e-01
4.847622e-01
4.675976e-01
4.941051e-01
4.450573e-01
4.675976e-01
4.563204e-01
4.787441e-01
4.675976e-01
4.941051e-01
4.787441e-01
5.051151e-01
4.563204e-01
4.787441e-01
4.692730e-01
4.915625e-01
4.787441e-01
5.051151e-01
4.915625e-01
5.177767e-01
4.692730e-01
4.915625e-01
4.838965e-01
5.060347e-01
4.915625e-01
5.177767e-01
5.060347e-01
5.320718e-01
4.838965e-01
5.060347e-01
5.001701e-01
5.221399e-01
5.060347e-01
5.320718e-01
5.221399e-01
5.479798e-01
5.001701e-01
5.221399e-01
5.180704e-01
5.398550e-01
5.221399e-01
5.479798e-01
5.398550e-01
5.654782e-01
5.180704e-01
5.398550e-01
5.375718e-01
5.591546e-01
5.398550e-01
5.654782e-01
5.591546e-01
5.845417e-01
5.375718e-01
5.591546e-01
5.586462e-01
5.800111e-01
5.591546e-01
5.845417e-01
5.800111e-01
6.051430e-01
5.586462e-01
5.800111e-01
5.812634e-01
6.023944e-01
5.800111e-01
6.051430e-01
6.023944e-01
6.272524e-01
5.812634e-01
6.023944e-01
6.053907e-01
6.262722e-01
6.023944e-01
6.272524e-01
6.262722e-01
6.508381e-01
6.053907e-01
6.262722e-01
6.309931e-01
6.516100e-01
6.262722e-01
6.508381e-01
6.516100e-01
6.758660e-01
6.309931e-01
6.516100e-01
6.580335e-01
6.783709e-01
6.516100e-01
6.758660e-01
6.783709e-01
7.022997e-01
6.580335e-01
6.783709e-01
6.864726e-01
7.065162e-01
6.783709e-01
7.022997e-01
7.065162e-01
7.301008e-01
6.864726e-01
7.065162e-01
7.162688e-01
7.360048e-01
7.065162e-01
7.301008e-01
7.360048e-01
7.592288e-01
7.162688e-01
7.360048e-01
7.473786e-01
7.667935e-01
7.360048e-01
7.592288e-01
7.667935e-01
7.896411e-01
7.473786e-01
7.667935e-01
7.797561e-01
7.988371e-01
7.667935e-01
7.896411e-01
7.988371e-01
8.212931e-01
7.797561e-01
7.988371e-01
8.133537e-01
8.320884e-01
7.988371e-01
8.212931e-01
8.320884e-01
8.541382e-01
8.133537e-01
8.320884e-01
8.481215e-01
8.664982e-01
8.320884e-01
8.541382e-01
8.664982e-01
8.881279e-01
8.481215e-01
8.664982e-01
8.840077e-01
9.020155e-01
8.664982e-01
8.881279e-01
9.020155e-01
9.232118e-01
8.840077e-01
9.020155e-01
9.209586e-01
9.385872e-01
9.020155e-01
9.232118e-01
9.385872e-01
9.593379e-01
9.209586e-01
9.385872e-01
9.589187e-01
9.761588e-01
9.385872e-01
9.593379e-01
9.761588e-01
9.964521e-01
9.589187e-01
9.761588e-01
9.978305e-01
1.014674e+00
9.761588e-01
9.964521e-01
1.014674e+00
1.034499e+00
9.978305e-01
1.014674e+00
1.037635e+00
1.054073e+00
1.014674e+00
1.034499e+00
1.054073e+00
1.073422e+00
1.037635e+00
1.054073e+00
1.078270e+00
1.094299e+00
1.054073e+00
1.073422e+00
1.094299e+00
1.113162e+00
1.078270e+00
1.094299e+00
1.119674e+00
1.135288e+00
1.094299e+00
1.113162e+00
1.135288e+00
1.153659e+00
1.119674e+00
1.135288e+00
1.161782e+00
1.176978e+00
1.135288e+00
1.153659e+00
1.176978e+00
1.194852e+00
1.161782e+00
1.176978e+00
1.204526e+00
1.219305e+00
1.176978e+00
1.194852e+00
1.219305e+00
1.236680e+00
1.204526e+00
1.219305e+00
1.247840e+00
1.262204e+00
1.219305e+00
1.236680e+00
1.262204e+00
1.279080e+00
1.247840e+00
1.262204e+00
1.291653e+00
1.305608e+00
1.262204e+00
1.279080e+00
1.305608e+00
1.321987e+00
1.291653e+00
1.305608e+00
1.335891e+00
1.349449e+00
1.305608e+00
1.321987e+00
1.349449e+00
1.365340e+00
1.335891e+00
1.349449e+00
1.380481e+00
1.393658e+00
1.349449e+00
1.365340e+00
1.393658e+00
1.409075e+00
1.380481e+00
1.393658e+00
1.425346e+00
1.438167e+00
1.393658e+00
1.409075e+00
1.438167e+00
1.453129e+00
1.425346e+00
1.438167e+00
1.470406e+00
1.482905e+00
1.438167e+00
1.453129e+00
1.482905e+00
1.497442e+00
1.470406e+00
1.482905e+00
1.515577e+00
1.527800e+00
1.482905e+00
1.497442e+00
1.527800e+00
1.541956e+00
1.515577e+00
1.527800e+00
1.560770e+00
1.572783e+00
1.527800e+00
1.541956e+00
1.572783e+00
1.586616e+00
1.560770e+00
1.572783e+00
1.605895e+00
1.617780e+00
1.572783e+00
1.586616e+00
1.617780e+00
1.631374e+00
1.605895e+00
1.617780e+00
1.650848e+00
1.662718e+00
1.617780e+00
1.631374e+00
1.662718e+00
1.676191e+00
1.650848e+00
1.662718e+00
1.695520e+00
1.707519e+00
1.662718e+00
1.676191e+00
1.707519e+00
1.721043e+00
1.695520e+00
1.707519e+00
1.739773e+00
1.752090e+00
1.707519e+00
1.721043e+00
1.752090e+00
1.765929e+00
1.739773e+00
1.752090e+00
1.783409e+00
1.796275e+00
1.752090e+00
1.765929e+00
1.796275e+00
1.810849e+00
1.783409e+00
1.796275e+00
1.826131e+00
1.839616e+00
1.796275e+00
1.810849e+00
1.839616e+00
1.855026e+00
1.826131e+00
1.839616e+00
1.866769e+00
1.880459e+00
1.839616e+00
1.855026e+00
1.880459e+00
1.895893e+00
1.866769e+00
1.880459e+00
1.904524e+00
1.918567e+00
1.880459e+00
1.895893e+00
1.918567e+00
1.934415e+00
1.904524e+00
1.918567e+00
1.939398e+00
1.953965e+00
1.918567e+00
1.934415e+00
1.953965e+00
1.970371e+00
1.939398e+00
1.953965e+00
1.971454e+00
1.986606e+00
1.953965e+00
1.970371e+00
1.986606e+00
2.003629e+00
1.971454e+00
1.986606e+00
2.000753e+00
2.016487e+00
1.986606e+00
2.003629e+00
2.016487e+00
2.034132e+00
2.000753e+00
2.016487e+00
2.027361e+00
2.043643e+00
2.016487e+00
2.034132e+00
2.043643e+00
2.061878e+00
2.027361e+00
2.043643e+00
2.051350e+00
2.068127e+00
2.043643e+00
2.061878e+00
2.068127e+00
2.086903e+00
2.051350e+00
2.068127e+00
2.072794e+00
2.090007e+00
2.068127e+00
2.086903e+00
2.090007e+00
2.109264e+00
2.072794e+00
2.090007e+00
2.091765e+00
2.109353e+00
2.090007e+00
2.109264e+00
2.109353e+00
2.129028e+00
2.091765e+00
2.109353e+00
2.108331e+00
2.126235e+00
2.109353e+00
2.129028e+00
2.126235e+00
2.146266e+00
2.108331e+00
2.126235e+00
2.122556e+00
2.140721e+00
2.126235e+00
2.146266e+00
2.140721e+00
2.161048e+00
2.122556e+00
2.140721e+00
2.134494e+00
2.152871e+00
2.140721e+00
2.161048e+00
2.152871e+00
2.173438e+00
2.134494e+00
2.152871e+00
2.144195e+00
2.162738e+00
2.152871e+00
2.173438e+00
2.162738e+00
2.183495e+00
2.144195e+00
2.162738e+00
2.151699e+00
2.170366e+00
2.162738e+00
2.183495e+00
2.170366e+00
2.191266e+00
2.151699e+00
2.170366e+00
2.157036e+00
2.175789e+00
2.170366e+00
2.191266e+00
2.175789e+00
2.196789e+00
2.157036e+00
2.175789e+00
2.160229e+00
2.179033e+00
2.175789e+00
2.196789e+00
2.179033e+00
2.200092e+00
2.160229e+00
2.179033e+00
2.161292e+00
2.180112e+00
2.179033e+00
2.200092e+00
2.180112e+00
2.201191e+00
</DataArray>
<DataArray type="Float32" Name="V3" format="ascii">
0.000000e+00
0.000000e+00
2.976637e-02
2.919396e-02
0.000000e+00
0.000000e+00
2.919396e-02
2.852324e-02
2.976637e-02
2.919396e-02
5.946274e-02
5.831850e-02
2.919396e-02
2.852324e-02
5.831850e-02
5.697772e-02
5.946274e-02
5.831850e-02
8.901875e-02
8.730399e-02
5.831850e-02
5.697772e-02
8.730399e-02
8.529467e-02
8.901875e-02
8.730399e-02
1.183644e-01
1.160811e-01
8.730399e-02
8.529467e-02
1.160811e-01
1.134055e-01
1.183644e-01
1.160811e-01
1.474301e-01
1.445808e-01
1.160811e-01
1.134055e-01
1.445808e-01
1.412420e-01
1.474301e-01
1.445808e-01
1.761463e-01
1.727342e-01
1.445808e-01
1.412420e-01
1.727342e-01
1.687359e-01
1.761463e-01
1.727342e-01
2.044440e-01
2.004731e-01
1.727342e-01
1.687359e-01
2.004731e-01
1.958199e-01
2.044440e-01
2.004731e-01
2.322548e-01
2.277295e-01
2.004731e-01
1.958199e-01
2.277295e-01
2.224265e-01
2.322548e-01
2.277295e-01
2.595106e-01
2.544360e-01
2.277295e-01
2.224265e-01
2.544360e-01
2.484893e-01
2.595106e-01
2.544360e-01
2.861442e-01
2.805260e-01
2.544360e-01
2.484893e-01
2.805260e-01
2.739422e-01
2.861442e-01
2.805260e-01
3.120889e-01
3.059335e-01
2.805260e-01
2.739422e-01
3.059335e-01
2.987200e-01
3.120889e-01
3.059335e-01
3.372789e-01
3.305932e-01
3.059335e-01
2.987200e-01
3.305932e-01
3.227580e-01
3.372789e-01
3.305932e-01
3.616492e-01
3.544407e-01
3.305932e-01
3.227580e-01
3.544407e-01
3.459927e-01
3.616492e-01
3.544407e-01
3.851359e-01
3.774127e-01
3.544407e-01
3.459927e-01
3.774127e-01
3.683612e-01
3.851359e-01
3.774127e-01
4.076760e-01
3.994467e-01
3.774127e-01
3.683612e-01
3.994467e-01
3.898018e-01
4.076760e-01
3.994467e-01
4.292076e-01
4.204814e-01
3.994467e-01
3.898018e-01
4.204814e-01
4.102539e-01
4.292076e-01
4.204814e-01
4.496700e-01
4.404567e-01
4.204814e-01
4.102539e-01
4.404567e-01
4.296578e-01
4.496700e-01
4.404567e-01
4.690038e-01
4.593135e-01
4.404567e-01
4.296578e-01
4.593135e-01
4.479554e-01
4.690038e-01
4.593135e-01
4.871508e-01
4.769943e-01
4.593135e-01
4.479554e-01
4.769943e-01
4.650895e-01
4.871508e-01
4.769943e-01
5.040542e-01
4.934429e-01
4.769943e-01
4.650895e-01
4.934429e-01
4.810045e-01
5.040542e-01
4.934429e-01
5.196587e-01
5.086044e-01
4.934429e-01
4.810045e-01
5.086044e-01
4.956463e-01
5.196587e-01
5.086044e-01
5.339106e-01
5.224256e-01
5.086044e-01
4.956463e-01
5.224256e-01
5.089622e-01
5.339106e-01
5.224256e-01
5.467576e-01
5.348548e-01
5.224256e-01
5.089622e-01
5.348548e-01
5.209010e-01
5.467576e-01
5.348548e-01
5.581492e-01
5.458419e-01
5.348548e-01
5.209010e-01
5.458419e-01
5.314135e-01
5.581492e-01
5.458419e-01
5.680365e-01
5.553386e-01
5.458419e-01
5.314135e-01
5.553386e-01
5.404518e-01
5.680365e-01
5.553386e-01
5.763725e-01
5.632983e-01
5.553386e-01
5.404518e-01
5.632983e-01
5.479702e-01
5.763725e-01
5.632983e-01
5.831118e-01
5.696765e-01
5.632983e-01
5.479702e-01
5.696765e-01
5.539247e-01
5.831118e-01
5.696765e-01
5.882112e-01
5.744304e-01
5.696765e-01
5.539247e-01
5.744304e-01
5.582734e-01
5.882112e-01
5.744304e-01
5.916290e-01
5.775190e-01
5.744304e-01
5.582734e-01
5.775190e-01
5.609763e-01
5.916290e-01
5.775190e-01
5.933256e-01
5.789037e-01
5.775190e-01
5.609763e-01
5.789037e-01
5.619956e-01
5.933256e-01
5.789037e-01
5.932636e-01
5.785478e-01
5.789037e-01
5.619956e-01
5.785478e-01
5.612960e-01
5.932636e-01
5.785478e-01
5.914073e-01
5.764166e-01
5.785478e-01
5.612960e-01
5.764166e-01
5.588441e-01
5.914073e-01
5.764166e-01
5.877231e-01
5.724779e-01
5.764166e-01
5.588441e-01
5.724779e-01
5.546094e-01
5.877231e-01
5.724779e-01
5.821794e-01
5.667015e-01
5.724779e-01
5.546094e-01
5.667015e-01
5.485638e-01
5.821794e-01
5.667015e-01
5.747466e-01
5.590595e-01
5.667015e-01
5.485638e-01
5.590595e-01
5.406818e-01
5.747466e-01
5.590595e-01
5.653970e-01
5.495263e-01
5.590595e-01
5.406818e-01
5.495263e-01
5.309409e-01
5.653970e-01
5.495263e-01
5.541048e-01
5.380786e-01
5.495263e-01
5.309409e-01
5.380786e-01
5.193218e-01
5.541048e-01
5.380786e-01
5.408462e-01
5.246955e-01
5.380786e-01
5.193218e-01
5.246955e-01
5.058082e-01
5.408462e-01
5.246955e-01
5.255989e-01
5.093582e-01
5.246955e-01
5.058082e-01
5.093582e-01
4.903874e-01
5.255989e-01
5.093582e-01
5.083423e-01
4.920504e-01
5.093582e-01
4.903874e-01
4.920504e-01
4.730508e-01
5.083423e-01
4.920504e-01
4.890578e-01
4.727577e-01
4.920504e-01
4.730508e-01
4.727577e-01
4.537939e-01
4.890578e-01
4.727577e-01
4.677283e-01
4.514680e-01
4.727577e-01
4.537939e-01
4.514680e-01
4.326176e-01
4.677283e-01
4.514680e-01
4.443400e-01
4.281726e-01
4.514680e-01
4.326176e-01
4.281726e-01
4.095300e-01
4.443400e-01
4.281726e-01
4.188870e-01
4.028705e-01
4.281726e-01
4.095300e-01
4.028705e-01
3.845475e-01
4.188870e-01
4.028705e-01
3.914023e-01
3.755928e-01
4.028705e-01
3.845475e-01
3.755928e-01
3.576820e-01
3.914023e-01
3.755928e-01
3.621280e-01
3.465405e-01
3.755928e-01
3.576820e-01
3.465405e-01
3.285891e-01
3.621280e-01
3.465405e-01
3.333490e-01
3.183321e-01
3.465405e-01
3.285891e-01
3.183321e-01
3.011657e-01
3.333490e-01
3.183321e-01
3.064108e-01
2.921017e-01
3.183321e-01
3.011657e-01
2.921017e-01
2.759080e-01
3.064108e-01
2.921017e-01
2.811299e-01
2.676227e-01
2.921017e-01
2.759080e-01
2.676227e-01
2.524501e-01
2.811299e-01
2.676227e-01
2.572225e-01
2.445995e-01
2.676227e-01
2.524501e-01
2.445995e-01
2.304927e-01
2.572225e-01
2.445995e-01
2.344523e-01
2.227751e-01
2.445995e-01
2.304927e-01
2.227751e-01
2.097698e-01
2.344523e-01
2.227751e-01
2.126149e-01
2.019240e-01
2.227751e-01
2.097698e-01
2.019240e-01
1.900444e-01
2.126149e-01
2.019240e-01
1.915368e-01
1.818548e-01
2.019240e-01
1.900444e-01
1.818548e-01
1.711127e-01
1.915368e-01
1.818548e-01
1.710727e-01
1.624076e-01
1.818548e-01
1.711127e-01
1.624076e-01
1.528036e-01
1.710727e-01
1.624076e-01
1.511015e-01
1.434507e-01
1.624076e-01
1.528036e-01
1.434507e-01
1.349767e-01
1.511015e-01
1.434507e-01
1.315227e-01
1.248765e-01
1.434507e-01
1.349767e-01
1.248765e-01
1.175182e-01
1.315227e-01
1.248765e-01
1.122536e-01
1.065979e-01
1.248765e-01
1.175182e-01
1.065979e-01
1.003377e-01
1.122536e-01
1.065979e-01
9.322562e-02
8.854440e-02
1.065979e-01
1.003377e-01
8.854440e-02
8.336367e-02
9.322562e-02
8.854440e-02
7.438211e-02
7.065955e-02
8.854440e-02
8.336367e-02
7.065955e-02
6.654005e-02
7.438211e-02
7.065955e-02
5.567563e-02
5.289748e-02
7.065955e-02
6.654005e-02
5.289748e-02
4.982317e-02
5.567563e-02
5.289748e-02
3.706593e-02
3.522063e-02
5.289748e-02
4.982317e-02
3.522063e-02
3.317861e-02
3.706593e-02
3.522063e-02
1.851795e-02
1.759739e-02
3.522063e-02
3.317861e-02
1.759739e-02
1.657868e-02
1.851795e-02
1.759739e-02
0.000000e+00
0.000000e+00
1.759739e-02
1.657868e-02
0.000000e+00
0.000000e+00
</DataArray>
<DataArray type="Float32" Name="V4" format="ascii">
8.500000e-01
9.250000e-01
8.500000e-01
9.250000e-01
9.250000e-01
1.000000e+00