<?xml version="1.0"?>
<VTKFile type="UnstructuredGrid" version="0.1" byte_order="LittleEndian" compressor="vtkZLibDataCompressor">
<UnstructuredGrid>
<Piece NumberOfPoints="504" NumberOfCells="126">
<Points>
<DataArray type="Float32" NumberOfComponents="3" format="ascii">
0.000000e+00 4.425012e-01 0.000000e+00
0.000000e+00 4.694276e-01 0.000000e+00
3.694848e-02 4.425093e-01 0.000000e+00
3.694295e-02 4.694299e-01 0.000000e+00
0.000000e+00 4.694276e-01 0.000000e+00
0.000000e+00 5.010938e-01 0.000000e+00
3.694295e-02 4.694299e-01 0.000000e+00
3.694021e-02 5.010938e-01 0.000000e+00
3.694848e-02 4.425093e-01 0.000000e+00
3.694295e-02 4.694299e-01 0.000000e+00
7.389595e-02 4.425238e-01 0.000000e+00
7.388481e-02 4.694378e-01 0.000000e+00
3.694295e-02 4.694299e-01 0.000000e+00
3.694021e-02 5.010938e-01 0.000000e+00
7.388481e-02 4.694378e-01 0.000000e+00
7.387925e-02 5.010938e-01 0.000000e+00
7.389595e-02 4.425238e-01 0.000000e+00
7.388481e-02 4.694378e-01 0.000000e+00
1.108410e-01 4.425479e-01 0.000000e+00
1.108243e-01 4.694508e-01 0.000000e+00
7.388481e-02 4.694378e-01 0.000000e+00
7.387925e-02 5.010938e-01 0.000000e+00
1.108243e-01 4.694508e-01 0.000000e+00
1.108160e-01 5.010938e-01 0.000000e+00
1.108410e-01 4.425479e-01 0.000000e+00
1.108243e-01 4.694508e-01 0.000000e+00
1.477824e-01 4.425816e-01 0.000000e+00
1.477603e-01 4.694691e-01 0.000000e+00
1.108243e-01 4.694508e-01 0.000000e+00
1.108160e-01 5.010938e-01 0.000000e+00
1.477603e-01 4.694691e-01 0.000000e+00
1.477492e-01 5.010938e-01 0.000000e+00
1.477824e-01 4.425816e-01 0.000000e+00
1.477603e-01 4.694691e-01 0.000000e+00
1.847191e-01 4.426249e-01 0.000000e+00
1.846915e-01 4.694926e-01 0.000000e+00
1.477603e-01 4.694691e-01 0.000000e+00
1.477492e-01 5.010938e-01 0.000000e+00
1.846915e-01 4.694926e-01 0.000000e+00
1.846777e-01 5.010938e-01 0.000000e+00
1.847191e-01 4.426249e-01 0.000000e+00
1.846915e-01 4.694926e-01 0.000000e+00
2.216497e-01 4.426778e-01 0.000000e+00
2.216167e-01 4.695212e-01 0.000000e+00
1.846915e-01 4.694926e-01 0.000000e+00
1.846777e-01 5.010938e-01 0.000000e+00
2.216167e-01 4.695212e-01 0.000000e+00
2.216003e-01 5.010938e-01 0.000000e+00
2.216497e-01 4.426778e-01 0.000000e+00
2.216167e-01 4.695212e-01 0.000000e+00
2.585730e-01 4.427402e-01 0.000000e+00
2.585348e-01 4.695550e-01 0.000000e+00
2.216167e-01 4.695212e-01 0.000000e+00
2.216003e-01 5.010938e-01 0.000000e+00
2.585348e-01 4.695550e-01 0.000000e+00
2.585159e-01 5.010938e-01 0.000000e+00
2.585730e-01 4.427402e-01 0.000000e+00
2.585348e-01 4.695550e-01 0.000000e+00
2.954878e-01 4.428121e-01 0.000000e+00
2.954444e-01 4.695939e-01 0.000000e+00
2.585348e-01 4.695550e-01 0.000000e+00
2.585159e-01 5.010938e-01 0.000000e+00
2.954444e-01 4.695939e-01 0.000000e+00
2.954231e-01 5.010938e-01 0.000000e+00
2.954878e-01 4.428121e-01 0.000000e+00
2.954444e-01 4.695939e-01 0.000000e+00
3.323928e-01 4.428934e-01 0.000000e+00
3.323444e-01 4.696380e-01 0.000000e+00
2.954444e-01 4.695939e-01 0.000000e+00
2.954231e-01 5.010938e-01 0.000000e+00
3.323444e-01 4.696380e-01 0.000000e+00
3.323208e-01 5.010938e-01 0.000000e+00
3.323928e-01 4.428934e-01 0.000000e+00
3.323444e-01 4.696380e-01 0.000000e+00
3.692867e-01 4.429841e-01 0.000000e+00
3.692335e-01 4.696871e-01 0.000000e+00
3.323444e-01 4.696380e-01 0.000000e+00
3.323208e-01 5.010938e-01 0.000000e+00
3.692335e-01 4.696871e-01 0.000000e+00
3.692076e-01 5.010938e-01 0.000000e+00
3.692867e-01 4.429841e-01 0.000000e+00
3.692335e-01 4.696871e-01 0.000000e+00
4.061681e-01 4.430841e-01 0.000000e+00
4.061103e-01 4.697413e-01 0.000000e+00
3.692335e-01 4.696871e-01 0.000000e+00
3.692076e-01 5.010938e-01 0.000000e+00
4.061103e-01 4.697413e-01 0.000000e+00
4.060824e-01 5.010938e-01 0.000000e+00
4.061681e-01 4.430841e-01 0.000000e+00
4.061103e-01 4.697413e-01 0.000000e+00
4.430358e-01 4.431933e-01 0.000000e+00
4.429735e-01 4.698004e-01 0.000000e+00
4.061103e-01 4.697413e-01 0.000000e+00
4.060824e-01 5.010938e-01 0.000000e+00
4.429735e-01 4.698004e-01 0.000000e+00
4.429438e-01 5.010938e-01 0.000000e+00
4.430358e-01 4.431933e-01 0.000000e+00
4.429735e-01 4.698004e-01 0.000000e+00
4.798882e-01 4.433117e-01 0.000000e+00
4.798217e-01 4.698646e-01 0.000000e+00
4.429735e-01 4.698004e-01 0.000000e+00
4.429438e-01 5.010938e-01 0.000000e+00
4.798217e-01 4.698646e-01 0.000000e+00
4.797905e-01 5.010938e-01 0.000000e+00
4.798882e-01 4.433117e-01 0.000000e+00
4.798217e-01 4.698646e-01 0.000000e+00
5.167239e-01 4.434391e-01 0.000000e+00
5.166536e-01 4.699337e-01 0.000000e+00
4.798217e-01 4.698646e-01 0.000000e+00
4.797905e-01 5.010938e-01 0.000000e+00
5.166536e-01 4.699337e-01 0.000000e+00
5.166212e-01 5.010938e-01 0.000000e+00
5.167239e-01 4.434391e-01 0.000000e+00
5.166536e-01 4.699337e-01 0.000000e+00
5.535415e-01 4.435755e-01 0.000000e+00
5.534678e-01 4.700076e-01 0.000000e+00
5.166536e-01 4.699337e-01 0.000000e+00
5.166212e-01 5.010938e-01 0.000000e+00
5.534678e-01 4.700076e-01 0.000000e+00
5.534344e-01 5.010938e-01 0.000000e+00
5.535415e-01 4.435755e-01 0.000000e+00
5.534678e-01 4.700076e-01 0.000000e+00
5.903394e-01 4.437207e-01 0.000000e+00
5.902627e-01 4.700864e-01 0.000000e+00
5.534678e-01 4.700076e-01 0.000000e+00
5.534344e-01 5.010938e-01 0.000000e+00
5.902627e-01 4.700864e-01 0.000000e+00
5.902288e-01 5.010938e-01 0.000000e+00
5.903394e-01 4.437207e-01 0.000000e+00
5.902627e-01 4.700864e-01 0.000000e+00
6.271159e-01 4.438747e-01 0.000000e+00
6.270369e-01 4.701701e-01 0.000000e+00
5.902627e-01 4.700864e-01 0.000000e+00
5.902288e-01 5.010938e-01 0.000000e+00
6.270369e-01 4.701701e-01 0.000000e+00
6.270030e-01 5.010938e-01 0.000000e+00
6.271159e-01 4.438747e-01 0.000000e+00
6.270369e-01 4.701701e-01 0.000000e+00
6.638695e-01 4.440374e-01 0.000000e+00
6.637887e-01 4.702584e-01 0.000000e+00
6.270369e-01 4.701701e-01 0.000000e+00
6.270030e-01 5.010938e-01 0.000000e+00
6.637887e-01 4.702584e-01 0.000000e+00
6.637555e-01 5.010938e-01 0.000000e+00
6.638695e-01 4.440374e-01 0.000000e+00
6.637887e-01 4.702584e-01 0.000000e+00
7.005983e-01 4.442087e-01 0.000000e+00
7.005167e-01 4.703515e-01 0.000000e+00
6.637887e-01 4.702584e-01 0.000000e+00
6.637555e-01 5.010938e-01 0.000000e+00
7.005167e-01 4.703515e-01 0.000000e+00
7.004850e-01 5.010938e-01 0.000000e+00
7.005983e-01 4.442087e-01 0.000000e+00
7.005167e-01 4.703515e-01 0.000000e+00
7.373006e-01 4.443884e-01 0.000000e+00
7.372191e-01 4.704493e-01 0.000000e+00
7.005167e-01 4.703515e-01 0.000000e+00
7.004850e-01 5.010938e-01 0.000000e+00
7.372191e-01 4.704493e-01 0.000000e+00
7.371899e-01 5.010938e-01 0.000000e+00
7.373006e-01 4.443884e-01 0.000000e+00
7.372191e-01 4.704493e-01 0.000000e+00
7.739743e-01 4.445764e-01 0.000000e+00
7.738943e-01 4.705518e-01 0.000000e+00
7.372191e-01 4.704493e-01 0.000000e+00
7.371899e-01 5.010938e-01 0.000000e+00
7.738943e-01 4.705518e-01 0.000000e+00
7.738688e-01 5.010938e-01 0.000000e+00
7.739743e-01 4.445764e-01 0.000000e+00
7.738943e-01 4.705518e-01 0.000000e+00
8.106175e-01 4.447726e-01 0.000000e+00
8.105405e-01 4.706589e-01 0.000000e+00
7.738943e-01 4.705518e-01 0.000000e+00
7.738688e-01 5.010938e-01 0.000000e+00
8.105405e-01 4.706589e-01 0.000000e+00
8.105204e-01 5.010938e-01 0.000000e+00
8.106175e-01 4.447726e-01 0.000000e+00
8.105405e-01 4.706589e-01 0.000000e+00
8.472279e-01 4.449770e-01 0.000000e+00
8.471561e-01 4.707706e-01 0.000000e+00
8.105405e-01 4.706589e-01 0.000000e+00
8.105204e-01 5.010938e-01 0.000000e+00
8.471561e-01 4.707706e-01 0.000000e+00
8.471432e-01 5.010938e-01 0.000000e+00
8.472279e-01 4.449770e-01 0.000000e+00
8.471561e-01 4.707706e-01 0.000000e+00
8.838032e-01 4.451894e-01 0.000000e+00
8.837391e-01 4.708870e-01 0.000000e+00
8.471561e-01 4.707706e-01 0.000000e+00
8.471432e-01 5.010938e-01 0.000000e+00
8.837391e-01 4.708870e-01 0.000000e+00
8.837360e-01 5.010938e-01 0.000000e+00
8.838032e-01 4.451894e-01 0.000000e+00
8.837391e-01 4.708870e-01 0.000000e+00
9.203409e-01 4.454097e-01 0.000000e+00
9.202877e-01 4.710081e-01 0.000000e+00
8.837391e-01 4.708870e-01 0.000000e+00
8.837360e-01 5.010938e-01 0.000000e+00
9.202877e-01 4.710081e-01 0.000000e+00
9.202976e-01 5.010938e-01 0.000000e+00
9.203409e-01 4.454097e-01 0.000000e+00
9.202877e-01 4.710081e-01 0.000000e+00
9.568381e-01 4.456379e-01 0.000000e+00
9.568000e-01 4.711340e-01 0.000000e+00
9.202877e-01 4.710081e-01 0.000000e+00
9.202976e-01 5.010938e-01 0.000000e+00
9.568000e-01 4.711340e-01 0.000000e+00
9.568271e-01 5.010938e-01 0.000000e+00
9.568381e-01 4.456379e-01 0.000000e+00
9.568000e-01 4.711340e-01 0.000000e+00
9.932918e-01 4.458738e-01 0.000000e+00
9.932741e-01 4.712647e-01 0.000000e+00
9.568000e-01 4.711340e-01 0.000000e+00
9.568271e-01 5.010938e-01 0.000000e+00
9.932741e-01 4.712647e-01 0.000000e+00
9.933236e-01 5.010938e-01 0.000000e+00
9.932918e-01 4.458738e-01 0.000000e+00
9.932741e-01 4.712647e-01 0.000000e+00
1.029699e+00 4.461174e-01 0.000000e+00
1.029708e+00 4.714006e-01 0.000000e+00
9.932741e-01 4.712647e-01 0.000000e+00
9.933236e-01 5.010938e-01 0.000000e+00
1.029708e+00 4.714006e-01 0.000000e+00
1.029787e+00 5.010938e-01 0.000000e+00
1.029699e+00 4.461174e-01 0.000000e+00
1.029708e+00 4.714006e-01 0.000000e+00
1.066054e+00 4.463688e-01 0.000000e+00
1.066100e+00 4.715417e-01 0.000000e+00
1.029708e+00 4.714006e-01 0.000000e+00
1.029787e+00 5.010938e-01 0.000000e+00
1.066100e+00 4.715417e-01 0.000000e+00
1.066217e+00 5.010938e-01 0.000000e+00
1.066054e+00 4.463688e-01 0.000000e+00
1.066100e+00 4.715417e-01 0.000000e+00
1.102355e+00 4.466279e-01 0.000000e+00
1.102448e+00 4.716885e-01 0.000000e+00
1.066100e+00 4.715417e-01 0.000000e+00
1.066217e+00 5.010938e-01 0.000000e+00
1.102448e+00 4.716885e-01 0.000000e+00
1.102614e+00 5.010938e-01 0.000000e+00
1.102355e+00 4.466279e-01 0.000000e+00
1.102448e+00 4.716885e-01 0.000000e+00
1.138595e+00 4.468948e-01 0.000000e+00
1.138751e+00 4.718414e-01 0.000000e+00
1.102448e+00 4.716885e-01 0.000000e+00
1.102614e+00 5.010938e-01 0.000000e+00
1.138751e+00 4.718414e-01 0.000000e+00
1.138980e+00 5.010938e-01 0.000000e+00
1.138595e+00 4.468948e-01 0.000000e+00
[...]
<PointData>
<DataArray type="Float32" Name="V1" format="ascii">
1.488850e+02
5.635470e+01
1.489411e+02
5.641076e+01
5.870055e+01
1.313605e+01
5.872424e+01
1.315974e+01
1.489631e+02
5.637703e+01
1.491019e+02
5.651585e+01
5.874432e+01
1.315053e+01
5.880912e+01
1.321533e+01
1.491557e+02
5.645566e+01
1.493845e+02
5.668443e+01
5.884739e+01
1.319480e+01
5.895840e+01
1.330580e+01
1.494676e+02
5.659612e+01
1.497872e+02
5.691575e+01
5.901419e+01
1.327323e+01
5.917121e+01
1.343025e+01
1.498993e+02
5.679875e+01
1.503109e+02
5.721034e+01
5.924494e+01
1.338585e+01
5.944820e+01
1.358911e+01
1.504521e+02
5.706415e+01
1.509568e+02
5.756890e+01
5.954020e+01
1.353289e+01
5.979015e+01
1.378284e+01
1.511273e+02
5.739307e+01
1.517266e+02
5.799234e+01
5.990072e+01
1.371475e+01
6.019798e+01
1.401201e+01
1.519267e+02
5.778640e+01
1.526221e+02
5.848178e+01
6.032744e+01
1.393191e+01
6.067281e+01
1.427728e+01
1.528522e+02
5.824521e+01
1.536455e+02
5.903851e+01
6.082149e+01
1.418499e+01
6.121592e+01
1.457942e+01
1.539063e+02
5.877074e+01
1.547996e+02
5.966405e+01
6.138421e+01
1.447472e+01
6.182879e+01
1.491929e+01
1.550916e+02
5.936443e+01
1.560873e+02
6.036009e+01
6.201713e+01
1.480193e+01
6.251312e+01
1.529792e+01
1.564111e+02
6.002791e+01
1.575117e+02
6.112856e+01
6.272198e+01
1.516760e+01
6.327080e+01
1.571642e+01
1.578681e+02
6.076303e+01
1.590767e+02
6.197160e+01
6.350073e+01
1.557282e+01
6.410399e+01
1.617608e+01
1.594664e+02
6.157186e+01
1.607861e+02
6.289157e+01
6.435555e+01
1.601883e+01
6.501506e+01
1.667834e+01
1.612101e+02
6.245671e+01
1.626445e+02
6.389113e+01
6.528890e+01
1.650703e+01
6.600667e+01
1.722480e+01
1.631037e+02
6.342014e+01
1.646568e+02
6.497315e+01
6.630348e+01
1.703899e+01
6.708175e+01
1.781725e+01
1.651521e+02
6.446498e+01
1.668280e+02
6.614084e+01
6.740228e+01
1.761645e+01
6.824354e+01
1.845771e+01
1.673605e+02
6.559438e+01
1.691638e+02
6.739768e+01
6.858860e+01
1.824140e+01
6.949564e+01
1.914843e+01
1.697346e+02
6.681179e+01
1.716703e+02
6.874751e+01
6.986608e+01
1.891605e+01
7.084198e+01
1.989194e+01
1.722805e+02
6.812100e+01
1.743540e+02
7.019450e+01
7.123872e+01
1.964287e+01
7.228693e+01
2.069108e+01
1.750045e+02
6.952623e+01
1.772215e+02
7.174324e+01
7.271093e+01
2.042468e+01
7.383531e+01
2.154906e+01
1.779133e+02
7.103208e+01
1.802800e+02
7.339874e+01
7.428756e+01
2.126466e+01
7.549247e+01
2.246956e+01
1.810140e+02
7.264368e+01
1.835368e+02
7.516646e+01
7.597398e+01
2.216643e+01
7.726431e+01
2.345675e+01
1.843137e+02
7.436665e+01
1.869994e+02
7.705239e+01
7.777611e+01
2.313415e+01
7.915741e+01
2.451546e+01
1.878195e+02
7.620726e+01
1.906753e+02
7.906308e+01
7.970051e+01
2.417264e+01
8.117915e+01
2.565128e+01
1.915384e+02
7.817248e+01
1.945716e+02
8.120571e+01
8.175447e+01
2.528748e+01
8.333778e+01
2.687079e+01
1.954769e+02
8.027009e+01
1.986950e+02
8.348815e+01
8.394615e+01
2.648527e+01
8.564264e+01
2.818176e+01
1.996408e+02
8.250886e+01
2.030510e+02
8.591907e+01
8.628467e+01
2.777382e+01
8.810434e+01
2.959348e+01
2.040343e+02
8.489868e+01
2.076436e+02
8.850802e+01
8.878035e+01
2.916251e+01
9.073504e+01
3.111720e+01
2.086594e+02
8.745084e+01
2.124741e+02
9.126556e+01
9.144491e+01
3.066274e+01
9.354883e+01
3.276666e+01
2.135150e+02
9.017831e+01
2.175400e+02
9.420338e+01
9.429174e+01
3.228845e+01
9.656213e+01
3.455884e+01
2.185953e+02
9.309612e+01
2.228337e+02
9.733451e+01
9.733630e+01
3.405697e+01
9.979434e+01
3.651501e+01
2.238880e+02
9.622189e+01
2.283395e+02
1.006734e+02
1.005966e+02
3.599006e+01
1.032686e+02
3.866209e+01
2.293716e+02
9.957638e+01
2.340315e+02
1.042362e+02
1.040936e+02
3.811539e+01
1.070128e+02
4.103458e+01
2.350121e+02
1.031843e+02
2.398686e+02
1.080409e+02
1.078522e+02
4.046859e+01
1.110608e+02
4.367727e+01
2.407583e+02
1.070750e+02
2.457901e+02
1.121069e+02
1.119014e+02
4.309632e+01
1.154542e+02
4.664917e+01
2.465366e+02
1.112837e+02
2.517082e+02
1.164553e+02
1.162751e+02
4.606077e+01
1.202437e+02
5.002938e+01
2.522432e+02
1.158515e+02
2.574997e+02
1.211081e+02
1.210112e+02
4.944685e+01
1.254907e+02
5.392636e+01
2.577350e+02
1.208273e+02
2.629960e+02
1.260883e+02
1.261473e+02
5.337467e+01
1.312668e+02
5.849416e+01
2.628162e+02
1.262705e+02
2.679717e+02
1.314260e+02
1.317070e+02
5.802361e+01
1.376486e+02
6.396518e+01
2.672117e+02
1.322707e+02
2.721355e+02
1.371945e+02
1.376558e+02
6.368807e+01
1.447018e+02
7.073416e+01
2.704912e+02
1.390358e+02
2.751408e+02
1.436854e+02
1.437880e+02
7.093831e+01
1.524712e+02
7.962149e+01
2.717635e+02
1.473078e+02
2.766641e+02
1.522084e+02
1.493227e+02
8.149177e+01
1.609428e+02
9.311184e+01
2.709465e+02
1.587222e+02
2.768367e+02
1.646125e+02
1.558074e+02
1.000168e+02
1.678729e+02
1.120823e+02
2.729905e+02
1.682648e+02
2.786265e+02
1.739007e+02
1.656182e+02
1.118646e+02
1.735492e+02
1.197956e+02
2.775484e+02
1.748874e+02
2.843016e+02
1.816406e+02
1.733463e+02
1.198509e+02
1.807440e+02
1.272486e+02
2.844046e+02
1.814301e+02
2.919380e+02
1.889636e+02
1.811188e+02
1.269604e+02
1.880617e+02
1.339033e+02
2.927540e+02
1.880404e+02
3.007903e+02
1.960767e+02
1.888190e+02
1.333744e+02
1.953371e+02
1.398925e+02
3.020470e+02
1.946887e+02
3.103396e+02
2.029813e+02
1.963488e+02
1.391981e+02
2.024573e+02
1.453066e+02
3.118717e+02
2.012919e+02
3.202098e+02
2.096300e+02
2.036364e+02
1.445032e+02
2.093428e+02
1.502096e+02
3.219041e+02
2.077590e+02
3.301106e+02
2.159655e+02
2.106196e+02
1.493435e+02
2.159258e+02
1.546497e+02
3.318830e+02
2.140059e+02
3.398111e+02
2.219340e+02
2.172437e+02
1.537587e+02
2.221479e+02
1.586629e+02
3.415963e+02
2.199595e+02
3.491255e+02
2.274886e+02
2.234616e+02
1.577776e+02
2.279601e+02
1.622760e+02
3.508712e+02
2.255583e+02
3.579031e+02
2.325903e+02
2.292334e+02
1.614207e+02
2.333211e+02
1.655085e+02
3.595670e+02
2.307517e+02
3.660223e+02
2.372070e+02
2.345254e+02
1.647021e+02
2.381974e+02
1.683741e+02
3.675700e+02
2.354983e+02
3.733849e+02
2.413132e+02
2.393102e+02
1.676313e+02
2.425616e+02
1.708828e+02
3.747890e+02
2.397647e+02
3.799128e+02
2.448885e+02
2.435653e+02
1.702147e+02
2.463918e+02
1.730413e+02
3.811512e+02
2.435242e+02
3.855440e+02
2.479170e+02
2.472727e+02
1.724565e+02
2.496705e+02
1.748543e+02
3.865994e+02
2.467555e+02
3.902305e+02
2.503866e+02
2.504182e+02
1.743590e+02
2.523841e+02
1.763250e+02
3.910894e+02
2.494422e+02
3.939355e+02
2.522883e+02
2.529906e+02
1.759240e+02
2.545222e+02
1.774556e+02
3.945879e+02
2.515714e+02
3.966322e+02
2.536157e+02
2.549818e+02
1.771521e+02
2.560771e+02
1.782475e+02
3.970709e+02
2.531339e+02
3.983019e+02
2.543649e+02
2.563856e+02
1.780440e+02
2.570433e+02
1.787017e+02
3.985224e+02
2.541228e+02
3.989334e+02
2.545338e+02
2.571982e+02
1.785996e+02
2.574175e+02
1.788190e+02
</DataArray>
<DataArray type="Float32" Name="V2" format="ascii">
4.425012e-01
4.694276e-01
4.432929e-01
4.702050e-01
4.694276e-01
5.010938e-01
4.702050e-01
5.018590e-01
4.432929e-01
4.702050e-01
4.456571e-01
4.725371e-01
4.702050e-01
5.018590e-01
4.725371e-01
5.041535e-01
4.456571e-01
4.725371e-01
4.495936e-01
4.764201e-01
4.725371e-01
5.041535e-01
4.764201e-01
5.079739e-01
4.495936e-01
4.764201e-01
4.550967e-01
4.818484e-01
4.764201e-01
5.079739e-01
4.818484e-01
5.133148e-01
4.550967e-01
4.818484e-01
4.621585e-01
4.888141e-01
4.818484e-01
5.133148e-01
4.888141e-01
5.201684e-01
4.621585e-01
4.888141e-01
4.707686e-01
4.973073e-01
4.888141e-01
5.201684e-01
4.973073e-01
5.285248e-01
4.707686e-01
4.973073e-01
4.809147e-01
5.073155e-01
4.973073e-01
5.285248e-01
5.073155e-01
5.383719e-01
4.809147e-01
5.073155e-01
4.925820e-01
5.188242e-01
5.073155e-01
5.383719e-01
5.188242e-01
5.496953e-01
4.925820e-01
5.188242e-01
5.057535e-01
5.318168e-01
5.188242e-01
5.496953e-01
5.318168e-01
5.624787e-01
5.057535e-01
5.318168e-01
5.204101e-01
5.462742e-01
5.318168e-01
5.624787e-01
5.462742e-01
5.767033e-01
5.204101e-01
5.462742e-01
5.365303e-01
5.621754e-01
5.462742e-01
5.767033e-01
5.621754e-01
5.923486e-01
5.365303e-01
5.621754e-01
5.540906e-01
5.794973e-01
5.621754e-01
5.923486e-01
5.794973e-01
6.093916e-01
5.540906e-01
5.794973e-01
5.730652e-01
5.982143e-01
5.794973e-01
6.093916e-01
5.982143e-01
6.278074e-01
5.730652e-01
5.982143e-01
5.934264e-01
6.182992e-01
5.982143e-01
6.278074e-01
6.182992e-01
6.475690e-01
5.934264e-01
6.182992e-01
6.151442e-01
6.397223e-01
6.182992e-01
6.475690e-01
6.397223e-01
6.686473e-01
6.151442e-01
6.397223e-01
6.381864e-01
6.624520e-01
6.397223e-01
6.686473e-01
6.624520e-01
6.910114e-01
6.381864e-01
6.624520e-01
6.625191e-01
6.864549e-01
6.624520e-01
6.910114e-01
6.864549e-01
7.146282e-01
6.625191e-01
6.864549e-01
6.881061e-01
7.116953e-01
6.864549e-01
7.146282e-01
7.116953e-01
7.394626e-01
6.881061e-01
7.116953e-01
7.149092e-01
7.381357e-01
7.116953e-01
7.394626e-01
7.381357e-01
7.654780e-01
7.149092e-01
7.381357e-01
7.428884e-01
7.657367e-01
7.381357e-01
7.654780e-01
7.657367e-01
7.926354e-01
7.428884e-01
7.657367e-01
7.720016e-01
7.944569e-01
7.657367e-01
7.926354e-01
7.944569e-01
8.208944e-01
7.720016e-01
7.944569e-01
8.022049e-01
8.242533e-01
7.944569e-01
8.208944e-01
8.242533e-01
8.502126e-01
8.022049e-01
8.242533e-01
8.334526e-01
8.550809e-01
8.242533e-01
8.502126e-01
8.550809e-01
8.805462e-01
8.334526e-01
8.550809e-01
8.656968e-01
8.868930e-01
8.550809e-01
8.805462e-01
8.868930e-01
9.118493e-01
8.656968e-01
8.868930e-01
8.988882e-01
9.196415e-01
8.868930e-01
9.118493e-01
9.196415e-01
9.440750e-01
8.988882e-01
9.196415e-01
9.329755e-01
9.532762e-01
9.196415e-01
9.440750e-01
9.532762e-01
9.771746e-01
9.329755e-01
9.532762e-01
9.679055e-01
9.877459e-01
9.532762e-01
9.771746e-01
9.877459e-01
1.011098e+00
9.679055e-01
9.877459e-01
1.003623e+00
1.022997e+00
9.877459e-01
1.011098e+00
1.022997e+00
1.045794e+00
1.003623e+00
1.022997e+00
1.040072e+00
1.058976e+00
1.022997e+00
1.045794e+00
1.058976e+00
1.081211e+00
1.040072e+00
1.058976e+00
1.077193e+00
1.095627e+00
1.058976e+00
1.081211e+00
1.095627e+00
1.117296e+00
1.077193e+00
1.095627e+00
1.114926e+00
1.132893e+00
1.095627e+00
1.117296e+00
1.132893e+00
1.153994e+00
1.114926e+00
1.132893e+00
1.153208e+00
1.170716e+00
1.132893e+00
1.153994e+00
1.170716e+00
1.191252e+00
1.153208e+00
1.170716e+00
1.191974e+00
1.209037e+00
1.170716e+00
1.191252e+00
1.209037e+00
1.229017e+00
1.191974e+00
1.209037e+00
1.231157e+00
1.247796e+00
1.209037e+00
1.229017e+00
1.247796e+00
1.267236e+00
1.231157e+00
1.247796e+00
1.270686e+00
1.286933e+00
1.247796e+00
1.267236e+00
1.286933e+00
1.305856e+00
1.270686e+00
1.286933e+00
1.310487e+00
1.326386e+00
1.286933e+00
1.305856e+00
1.326386e+00
1.344828e+00
1.310487e+00
1.326386e+00
1.350481e+00
1.366093e+00
1.326386e+00
1.344828e+00
1.366093e+00
1.384106e+00
1.350481e+00
1.366093e+00
1.390586e+00
1.405992e+00
1.366093e+00
1.384106e+00
1.405992e+00
1.423650e+00
1.390586e+00
1.405992e+00
1.430710e+00
1.446018e+00
1.405992e+00
1.423650e+00
1.446018e+00
1.463427e+00
1.430710e+00
1.446018e+00
1.470752e+00
1.486101e+00
1.446018e+00
1.463427e+00
1.486101e+00
1.503416e+00
1.470752e+00
1.486101e+00
1.510588e+00
1.526158e+00
1.486101e+00
1.503416e+00
1.526158e+00
1.543612e+00
1.510588e+00
1.526158e+00
1.550042e+00
1.566053e+00
1.526158e+00
1.543612e+00
1.566053e+00
1.584008e+00
1.550042e+00
1.566053e+00
1.588840e+00
1.605474e+00
1.566053e+00
1.584008e+00
1.605474e+00
1.624359e+00
1.588840e+00
1.605474e+00
1.626370e+00
1.643378e+00
1.605474e+00
1.624359e+00
1.643378e+00
1.662459e+00
1.626370e+00
1.643378e+00
1.661482e+00
1.678742e+00
1.643378e+00
1.662459e+00
1.678742e+00
1.698121e+00
1.661482e+00
1.678742e+00
1.694132e+00
1.711879e+00
1.678742e+00
1.698121e+00
1.711879e+00
1.731754e+00
1.694132e+00
1.711879e+00
1.724409e+00
1.742742e+00
1.711879e+00
1.731754e+00
1.742742e+00
1.763200e+00
1.724409e+00
1.742742e+00
1.752393e+00
1.771331e+00
1.742742e+00
1.763200e+00
1.771331e+00
1.792402e+00
1.752393e+00
1.771331e+00
1.778161e+00
1.797680e+00
1.771331e+00
1.792402e+00
1.797680e+00
1.819352e+00
1.778161e+00
1.797680e+00
1.801786e+00
1.821839e+00
1.797680e+00
1.819352e+00
1.821839e+00
1.844078e+00
1.801786e+00
1.821839e+00
1.823341e+00
1.843872e+00
1.821839e+00
1.844078e+00
1.843872e+00
1.866626e+00
1.823341e+00
1.843872e+00
1.842897e+00
1.863845e+00
1.843872e+00
1.866626e+00
1.863845e+00
1.887059e+00
1.842897e+00
1.863845e+00
1.860520e+00
1.881827e+00
1.863845e+00
1.887059e+00
1.881827e+00
1.905442e+00
1.860520e+00
1.881827e+00
1.876274e+00
1.897884e+00
1.881827e+00
1.905442e+00
1.897884e+00
1.921845e+00
1.876274e+00
1.897884e+00
1.890213e+00
1.912078e+00
1.897884e+00
1.921845e+00
1.912078e+00
1.936332e+00
1.890213e+00
1.912078e+00
1.902391e+00
1.924466e+00
1.912078e+00
1.936332e+00
1.924466e+00
1.948964e+00
1.902391e+00
1.924466e+00
1.912853e+00
1.935099e+00
1.924466e+00
1.948964e+00
1.935099e+00
1.959798e+00
1.912853e+00
1.935099e+00
1.921638e+00
1.944020e+00
1.935099e+00
1.959798e+00
1.944020e+00
1.968882e+00
1.921638e+00
1.944020e+00
1.928781e+00
1.951269e+00
1.944020e+00
1.968882e+00
1.951269e+00
1.976257e+00
1.928781e+00
1.951269e+00
1.934308e+00
1.956874e+00
1.951269e+00
1.976257e+00
1.956874e+00
1.981958e+00
1.934308e+00
1.956874e+00
1.938240e+00
1.960861e+00
1.956874e+00
1.981958e+00
1.960861e+00
1.986011e+00
1.938240e+00
1.960861e+00
1.940594e+00
1.963246e+00
1.960861e+00
1.986011e+00
1.963246e+00
1.988435e+00
1.940594e+00
1.963246e+00
1.941377e+00
1.964040e+00
1.963246e+00
1.988435e+00
1.964040e+00
1.989242e+00
</DataArray>
<DataArray type="Float32" Name="V3" format="ascii">
0.000000e+00
0.000000e+00
2.590493e-02
2.522825e-02
0.000000e+00
0.000000e+00
2.522825e-02
2.443611e-02
2.590493e-02
2.522825e-02
5.174610e-02
5.039343e-02
2.522825e-02
2.443611e-02
5.039343e-02
4.880995e-02
5.174610e-02
5.039343e-02
7.745942e-02
7.543232e-02
5.039343e-02
4.880995e-02
7.543232e-02
7.305932e-02
7.745942e-02
7.543232e-02
1.029812e-01
1.002820e-01
7.543232e-02
7.305932e-02
1.002820e-01
9.712216e-02
1.029812e-01
1.002820e-01
1.282479e-01
1.248797e-01
1.002820e-01
9.712216e-02
1.248797e-01
1.209366e-01
1.282479e-01
1.248797e-01
1.531963e-01
1.491629e-01
1.248797e-01
1.209366e-01
1.491629e-01
1.444411e-01
1.531963e-01
1.491629e-01
1.777637e-01
1.730697e-01
1.491629e-01
1.444411e-01
1.730697e-01
1.675744e-01
1.777637e-01
1.730697e-01
2.018875e-01
1.965383e-01
1.730697e-01
1.675744e-01
1.965383e-01
1.902758e-01
2.018875e-01
1.965383e-01
2.255060e-01
2.195076e-01
1.965383e-01
1.902758e-01
2.195076e-01
2.124849e-01
2.255060e-01
2.195076e-01
2.485578e-01
2.419170e-01
2.195076e-01
2.124849e-01
2.419170e-01
2.341421e-01
2.485578e-01
2.419170e-01
2.709822e-01
2.637066e-01
2.419170e-01
2.341421e-01
2.637066e-01
2.551883e-01
2.709822e-01
2.637066e-01
2.927194e-01
2.848173e-01
2.637066e-01
2.551883e-01
2.848173e-01
2.755651e-01
2.927194e-01
2.848173e-01
3.137103e-01
3.051905e-01
2.848173e-01
2.755651e-01
3.051905e-01
2.952149e-01
3.137103e-01
3.051905e-01
3.338965e-01
3.247688e-01
3.051905e-01
2.952149e-01
3.247688e-01
3.140809e-01
3.338965e-01
3.247688e-01
3.532209e-01
3.434956e-01
3.247688e-01
3.140809e-01
3.434956e-01
3.321074e-01
3.532209e-01
3.434956e-01
3.716271e-01
3.613151e-01
3.434956e-01
3.321074e-01
3.613151e-01
3.492395e-01
3.716271e-01
3.613151e-01
3.890599e-01
3.781729e-01
3.613151e-01
3.492395e-01
3.781729e-01
3.654235e-01
3.890599e-01
3.781729e-01
4.054651e-01
3.940155e-01
3.781729e-01
3.654235e-01
3.940155e-01
3.806066e-01
4.054651e-01
3.940155e-01
4.207900e-01
4.087907e-01
3.940155e-01
3.806066e-01
4.087907e-01
3.947375e-01
4.207900e-01
4.087907e-01
4.349828e-01
4.224475e-01
4.087907e-01
3.947375e-01
4.224475e-01
4.077660e-01
4.349828e-01
4.224475e-01
4.479932e-01
4.349362e-01
4.224475e-01
4.077660e-01
4.349362e-01
4.196432e-01
4.479932e-01
4.349362e-01
4.597724e-01
4.462088e-01
4.349362e-01
4.196432e-01
4.462088e-01
4.303217e-01
4.597724e-01
4.462088e-01
4.702728e-01
4.562182e-01
4.462088e-01
4.303217e-01
4.562182e-01
4.397557e-01
4.702728e-01
4.562182e-01
4.794484e-01
4.649194e-01
4.562182e-01
4.397557e-01
4.649194e-01
4.479008e-01
4.794484e-01
4.649194e-01
4.872546e-01
4.722685e-01
4.649194e-01
4.479008e-01
4.722685e-01
4.547143e-01
4.872546e-01
4.722685e-01
4.936487e-01
4.782236e-01
4.722685e-01
4.547143e-01
4.782236e-01
4.601553e-01
4.936487e-01
4.782236e-01
4.985890e-01
4.827442e-01
4.782236e-01
4.601553e-01
4.827442e-01
4.641848e-01
4.985890e-01
4.827442e-01
5.020361e-01
4.857918e-01
4.827442e-01
4.641848e-01
4.857918e-01
4.667655e-01
5.020361e-01
4.857918e-01
5.039517e-01
4.873294e-01
4.857918e-01
4.667655e-01
4.873294e-01
4.678625e-01
5.039517e-01
4.873294e-01
5.042993e-01
4.873222e-01
4.873294e-01
4.678625e-01
4.873222e-01
4.674427e-01
5.042993e-01
4.873222e-01
5.030441e-01
4.857369e-01
4.873222e-01
4.674427e-01
4.857369e-01
4.654756e-01
5.030441e-01
4.857369e-01
5.001529e-01
4.825424e-01
4.857369e-01
4.654756e-01
4.825424e-01
4.619330e-01
5.001529e-01
4.825424e-01
4.955938e-01
4.777095e-01
4.825424e-01
4.619330e-01
4.777095e-01
4.567893e-01
4.955938e-01
4.777095e-01
4.893367e-01
4.712108e-01
4.777095e-01
4.567893e-01
4.712108e-01
4.500220e-01
4.893367e-01
4.712108e-01
4.813524e-01
4.630210e-01
4.712108e-01
4.500220e-01
4.630210e-01
4.416114e-01
4.813524e-01
4.630210e-01
4.716136e-01
4.531166e-01
4.630210e-01
4.416114e-01
4.531166e-01
4.315413e-01
4.716136e-01
4.531166e-01
4.600935e-01
4.414760e-01
4.531166e-01
4.315413e-01
4.414760e-01
4.197993e-01
4.600935e-01
4.414760e-01
4.467669e-01
4.280792e-01
4.414760e-01
4.197993e-01
4.280792e-01
4.063772e-01
4.467669e-01
4.280792e-01
4.316097e-01
4.129081e-01
4.280792e-01
4.063772e-01
4.129081e-01
3.912721e-01
4.316097e-01
4.129081e-01
4.146003e-01
3.959469e-01
4.129081e-01
3.912721e-01
3.959469e-01
3.744874e-01
4.146003e-01
3.959469e-01
3.957244e-01
3.771867e-01
3.959469e-01
3.744874e-01
3.771867e-01
3.560330e-01
3.957244e-01
3.771867e-01
3.749989e-01
3.566446e-01
3.771867e-01
3.560330e-01
3.566446e-01
3.359139e-01
3.749989e-01
3.566446e-01
3.525531e-01
3.344245e-01
3.566446e-01
3.359139e-01
3.344245e-01
3.140007e-01
3.525531e-01
3.344245e-01
3.293590e-01
3.115799e-01
3.344245e-01
3.140007e-01
3.115799e-01
2.913104e-01
3.293590e-01
3.115799e-01
3.072592e-01
2.901512e-01
3.115799e-01
2.913104e-01
2.901512e-01
2.708915e-01
3.072592e-01
2.901512e-01
2.863404e-01
2.700313e-01
2.901512e-01
2.708915e-01
2.700313e-01
2.518526e-01
2.863404e-01
2.700313e-01
2.664343e-01
2.510307e-01
2.700313e-01
2.518526e-01
2.510307e-01
2.339728e-01
2.664343e-01
2.510307e-01
2.473702e-01
2.329474e-01
2.510307e-01
2.339728e-01
2.329474e-01
2.170416e-01
2.473702e-01
2.329474e-01
2.289990e-01
2.156049e-01
2.329474e-01
2.170416e-01
2.156049e-01
2.008716e-01
2.289990e-01
2.156049e-01
2.111925e-01
1.988522e-01
2.156049e-01
2.008716e-01
1.988522e-01
1.852995e-01
2.111925e-01
1.988522e-01
1.938422e-01
1.825631e-01
1.988522e-01
1.852995e-01
1.825631e-01
1.701872e-01
1.938422e-01
1.825631e-01
1.768576e-01
1.666335e-01
1.825631e-01
1.701872e-01
1.666335e-01
1.554207e-01
1.768576e-01
1.666335e-01
1.601635e-01
1.509788e-01
1.666335e-01
1.554207e-01
1.509788e-01
1.409083e-01
1.601635e-01
1.509788e-01
1.436980e-01
1.355312e-01
1.509788e-01
1.409083e-01
1.355312e-01
1.265770e-01
1.436980e-01
1.355312e-01
1.274108e-01
1.202369e-01
1.355312e-01
1.265770e-01
1.202369e-01
1.123706e-01
1.274108e-01
1.202369e-01
1.112610e-01
1.050539e-01
1.202369e-01
1.123706e-01
1.050539e-01
9.824655e-02
1.112610e-01
1.050539e-01
9.521598e-02
8.994996e-02
1.050539e-01
9.824655e-02
8.994996e-02
8.417364e-02
9.521598e-02
8.994996e-02
7.924949e-02
7.490082e-02
8.994996e-02
8.417364e-02
7.490082e-02
7.012980e-02
7.924949e-02
7.490082e-02
6.334082e-02
5.988854e-02
7.490082e-02
7.012980e-02
5.988854e-02
5.610024e-02
6.334082e-02
5.988854e-02
4.747355e-02
4.490018e-02
5.988854e-02
5.610024e-02
4.490018e-02
4.207588e-02
4.747355e-02
4.490018e-02
3.163454e-02
2.992660e-02
4.490018e-02
4.207588e-02
2.992660e-02
2.805190e-02
3.163454e-02
2.992660e-02
1.581308e-02
1.496142e-02
2.992660e-02
2.805190e-02
1.496142e-02
1.402654e-02
1.581308e-02
1.496142e-02
0.000000e+00
0.000000e+00
1.496142e-02
1.402654e-02
0.000000e+00
0.000000e+00
</DataArray>
<DataArray type="Float32" Name="V4" format="ascii">
8.500000e-01
9.250000e-01
8.500000e-01
9.250000e-01
9.250000e-01
1.000000e+00