<?xml version="1.0"?>
<VTKFile type="UnstructuredGrid" version="0.1" byte_order="LittleEndian" compressor="vtkZLibDataCompressor">
<UnstructuredGrid>
<Piece NumberOfPoints="504" NumberOfCells="126">
<Points>
<DataArray type="Float32" NumberOfComponents="3" format="ascii">
0.000000e+00 4.514053e-01 0.000000e+00
0.000000e+00 4.794801e-01 0.000000e+00
3.618500e-02 4.514134e-01 0.000000e+00
3.617840e-02 4.794827e-01 0.000000e+00
0.000000e+00 4.794801e-01 0.000000e+00
0.000000e+00 5.125000e-01 0.000000e+00
3.617840e-02 4.794827e-01 0.000000e+00
3.617488e-02 5.125000e-01 0.000000e+00
3.618500e-02 4.514134e-01 0.000000e+00
3.617840e-02 4.794827e-01 0.000000e+00
7.236903e-02 4.514285e-01 0.000000e+00
7.235573e-02 4.794909e-01 0.000000e+00
3.617840e-02 4.794827e-01 0.000000e+00
3.617488e-02 5.125000e-01 0.000000e+00
7.235573e-02 4.794909e-01 0.000000e+00
7.234861e-02 5.125000e-01 0.000000e+00
7.236903e-02 4.514285e-01 0.000000e+00
7.235573e-02 4.794909e-01 0.000000e+00
1.085507e-01 4.514537e-01 0.000000e+00
1.085308e-01 4.795045e-01 0.000000e+00
7.235573e-02 4.794909e-01 0.000000e+00
7.234861e-02 5.125000e-01 0.000000e+00
1.085308e-01 4.795045e-01 0.000000e+00
1.085201e-01 5.125000e-01 0.000000e+00
1.085507e-01 4.514537e-01 0.000000e+00
1.085308e-01 4.795045e-01 0.000000e+00
1.447288e-01 4.514889e-01 0.000000e+00
1.447023e-01 4.795236e-01 0.000000e+00
1.085308e-01 4.795045e-01 0.000000e+00
1.085201e-01 5.125000e-01 0.000000e+00
1.447023e-01 4.795236e-01 0.000000e+00
1.446882e-01 5.125000e-01 0.000000e+00
1.447288e-01 4.514889e-01 0.000000e+00
1.447023e-01 4.795236e-01 0.000000e+00
1.809023e-01 4.515342e-01 0.000000e+00
1.808693e-01 4.795481e-01 0.000000e+00
1.447023e-01 4.795236e-01 0.000000e+00
1.446882e-01 5.125000e-01 0.000000e+00
1.808693e-01 4.795481e-01 0.000000e+00
1.808517e-01 5.125000e-01 0.000000e+00
1.809023e-01 4.515342e-01 0.000000e+00
1.808693e-01 4.795481e-01 0.000000e+00
2.170698e-01 4.515894e-01 0.000000e+00
2.170304e-01 4.795780e-01 0.000000e+00
1.808693e-01 4.795481e-01 0.000000e+00
1.808517e-01 5.125000e-01 0.000000e+00
2.170304e-01 4.795780e-01 0.000000e+00
2.170095e-01 5.125000e-01 0.000000e+00
2.170698e-01 4.515894e-01 0.000000e+00
2.170304e-01 4.795780e-01 0.000000e+00
2.532303e-01 4.516546e-01 0.000000e+00
2.531846e-01 4.796133e-01 0.000000e+00
2.170304e-01 4.795780e-01 0.000000e+00
2.170095e-01 5.125000e-01 0.000000e+00
2.531846e-01 4.796133e-01 0.000000e+00
2.531604e-01 5.125000e-01 0.000000e+00
2.532303e-01 4.516546e-01 0.000000e+00
2.531846e-01 4.796133e-01 0.000000e+00
2.893824e-01 4.517297e-01 0.000000e+00
2.893306e-01 4.796540e-01 0.000000e+00
2.531846e-01 4.796133e-01 0.000000e+00
2.531604e-01 5.125000e-01 0.000000e+00
2.893306e-01 4.796540e-01 0.000000e+00
2.893032e-01 5.125000e-01 0.000000e+00
2.893824e-01 4.517297e-01 0.000000e+00
2.893306e-01 4.796540e-01 0.000000e+00
3.255249e-01 4.518146e-01 0.000000e+00
3.254671e-01 4.797000e-01 0.000000e+00
2.893306e-01 4.796540e-01 0.000000e+00
2.893032e-01 5.125000e-01 0.000000e+00
3.254671e-01 4.797000e-01 0.000000e+00
3.254367e-01 5.125000e-01 0.000000e+00
3.255249e-01 4.518146e-01 0.000000e+00
3.254671e-01 4.797000e-01 0.000000e+00
3.616566e-01 4.519093e-01 0.000000e+00
3.615930e-01 4.797513e-01 0.000000e+00
3.254671e-01 4.797000e-01 0.000000e+00
3.254367e-01 5.125000e-01 0.000000e+00
3.615930e-01 4.797513e-01 0.000000e+00
3.615597e-01 5.125000e-01 0.000000e+00
3.616566e-01 4.519093e-01 0.000000e+00
3.615930e-01 4.797513e-01 0.000000e+00
3.977761e-01 4.520137e-01 0.000000e+00
3.977070e-01 4.798079e-01 0.000000e+00
3.615930e-01 4.797513e-01 0.000000e+00
3.615597e-01 5.125000e-01 0.000000e+00
3.977070e-01 4.798079e-01 0.000000e+00
3.976710e-01 5.125000e-01 0.000000e+00
3.977761e-01 4.520137e-01 0.000000e+00
3.977070e-01 4.798079e-01 0.000000e+00
4.338821e-01 4.521277e-01 0.000000e+00
4.338077e-01 4.798697e-01 0.000000e+00
3.977070e-01 4.798079e-01 0.000000e+00
3.976710e-01 5.125000e-01 0.000000e+00
4.338077e-01 4.798697e-01 0.000000e+00
4.337693e-01 5.125000e-01 0.000000e+00
4.338821e-01 4.521277e-01 0.000000e+00
4.338077e-01 4.798697e-01 0.000000e+00
4.699732e-01 4.522512e-01 0.000000e+00
4.698938e-01 4.799367e-01 0.000000e+00
4.338077e-01 4.798697e-01 0.000000e+00
4.337693e-01 5.125000e-01 0.000000e+00
4.698938e-01 4.799367e-01 0.000000e+00
4.698533e-01 5.125000e-01 0.000000e+00
4.699732e-01 4.522512e-01 0.000000e+00
4.698938e-01 4.799367e-01 0.000000e+00
5.060479e-01 4.523842e-01 0.000000e+00
5.059640e-01 4.800089e-01 0.000000e+00
4.698938e-01 4.799367e-01 0.000000e+00
4.698533e-01 5.125000e-01 0.000000e+00
5.059640e-01 4.800089e-01 0.000000e+00
5.059217e-01 5.125000e-01 0.000000e+00
5.060479e-01 4.523842e-01 0.000000e+00
5.059640e-01 4.800089e-01 0.000000e+00
5.421049e-01 4.525266e-01 0.000000e+00
5.420168e-01 4.800861e-01 0.000000e+00
5.059640e-01 4.800089e-01 0.000000e+00
5.059217e-01 5.125000e-01 0.000000e+00
5.420168e-01 4.800861e-01 0.000000e+00
5.419732e-01 5.125000e-01 0.000000e+00
5.421049e-01 4.525266e-01 0.000000e+00
5.420168e-01 4.800861e-01 0.000000e+00
5.781425e-01 4.526782e-01 0.000000e+00
5.780509e-01 4.801685e-01 0.000000e+00
5.420168e-01 4.800861e-01 0.000000e+00
5.419732e-01 5.125000e-01 0.000000e+00
5.780509e-01 4.801685e-01 0.000000e+00
5.780064e-01 5.125000e-01 0.000000e+00
5.781425e-01 4.526782e-01 0.000000e+00
5.780509e-01 4.801685e-01 0.000000e+00
6.141592e-01 4.528390e-01 0.000000e+00
6.140647e-01 4.802558e-01 0.000000e+00
5.780509e-01 4.801685e-01 0.000000e+00
5.780064e-01 5.125000e-01 0.000000e+00
6.140647e-01 4.802558e-01 0.000000e+00
6.140200e-01 5.125000e-01 0.000000e+00
6.141592e-01 4.528390e-01 0.000000e+00
6.140647e-01 4.802558e-01 0.000000e+00
6.501532e-01 4.530088e-01 0.000000e+00
6.500567e-01 4.803482e-01 0.000000e+00
6.140647e-01 4.802558e-01 0.000000e+00
6.140200e-01 5.125000e-01 0.000000e+00
6.500567e-01 4.803482e-01 0.000000e+00
6.500127e-01 5.125000e-01 0.000000e+00
6.501532e-01 4.530088e-01 0.000000e+00
6.500567e-01 4.803482e-01 0.000000e+00
6.861229e-01 4.531875e-01 0.000000e+00
6.860254e-01 4.804455e-01 0.000000e+00
6.500567e-01 4.803482e-01 0.000000e+00
6.500127e-01 5.125000e-01 0.000000e+00
6.860254e-01 4.804455e-01 0.000000e+00
6.859830e-01 5.125000e-01 0.000000e+00
6.861229e-01 4.531875e-01 0.000000e+00
6.860254e-01 4.804455e-01 0.000000e+00
7.220664e-01 4.533751e-01 0.000000e+00
7.219692e-01 4.805477e-01 0.000000e+00
6.860254e-01 4.804455e-01 0.000000e+00
6.859830e-01 5.125000e-01 0.000000e+00
7.219692e-01 4.805477e-01 0.000000e+00
7.219296e-01 5.125000e-01 0.000000e+00
7.220664e-01 4.533751e-01 0.000000e+00
7.219692e-01 4.805477e-01 0.000000e+00
7.579817e-01 4.535714e-01 0.000000e+00
7.578864e-01 4.806549e-01 0.000000e+00
7.219692e-01 4.805477e-01 0.000000e+00
7.219296e-01 5.125000e-01 0.000000e+00
7.578864e-01 4.806549e-01 0.000000e+00
7.578511e-01 5.125000e-01 0.000000e+00
7.579817e-01 4.535714e-01 0.000000e+00
7.578864e-01 4.806549e-01 0.000000e+00
7.938667e-01 4.537762e-01 0.000000e+00
7.937753e-01 4.807670e-01 0.000000e+00
7.578864e-01 4.806549e-01 0.000000e+00
7.578511e-01 5.125000e-01 0.000000e+00
7.937753e-01 4.807670e-01 0.000000e+00
7.937464e-01 5.125000e-01 0.000000e+00
7.938667e-01 4.537762e-01 0.000000e+00
7.937753e-01 4.807670e-01 0.000000e+00
8.297193e-01 4.539896e-01 0.000000e+00
8.296343e-01 4.808840e-01 0.000000e+00
7.937753e-01 4.807670e-01 0.000000e+00
7.937464e-01 5.125000e-01 0.000000e+00
8.296343e-01 4.808840e-01 0.000000e+00
8.296141e-01 5.125000e-01 0.000000e+00
8.297193e-01 4.539896e-01 0.000000e+00
8.296343e-01 4.808840e-01 0.000000e+00
8.655368e-01 4.542114e-01 0.000000e+00
8.654615e-01 4.810059e-01 0.000000e+00
8.296343e-01 4.808840e-01 0.000000e+00
8.296141e-01 5.125000e-01 0.000000e+00
8.654615e-01 4.810059e-01 0.000000e+00
8.654532e-01 5.125000e-01 0.000000e+00
8.655368e-01 4.542114e-01 0.000000e+00
8.654615e-01 4.810059e-01 0.000000e+00
9.013168e-01 4.544415e-01 0.000000e+00
9.012552e-01 4.811330e-01 0.000000e+00
8.654615e-01 4.810059e-01 0.000000e+00
8.654532e-01 5.125000e-01 0.000000e+00
9.012552e-01 4.811330e-01 0.000000e+00
9.012627e-01 5.125000e-01 0.000000e+00
9.013168e-01 4.544415e-01 0.000000e+00
9.012552e-01 4.811330e-01 0.000000e+00
9.370562e-01 4.546798e-01 0.000000e+00
9.370135e-01 4.812652e-01 0.000000e+00
9.012552e-01 4.811330e-01 0.000000e+00
9.012627e-01 5.125000e-01 0.000000e+00
9.370135e-01 4.812652e-01 0.000000e+00
9.370421e-01 5.125000e-01 0.000000e+00
9.370562e-01 4.546798e-01 0.000000e+00
9.370135e-01 4.812652e-01 0.000000e+00
9.727517e-01 4.549264e-01 0.000000e+00
9.727346e-01 4.814028e-01 0.000000e+00
9.370135e-01 4.812652e-01 0.000000e+00
9.370421e-01 5.125000e-01 0.000000e+00
9.727346e-01 4.814028e-01 0.000000e+00
9.727908e-01 5.125000e-01 0.000000e+00
9.727517e-01 4.549264e-01 0.000000e+00
9.727346e-01 4.814028e-01 0.000000e+00
1.008400e+00 4.551811e-01 0.000000e+00
1.008417e+00 4.815460e-01 0.000000e+00
9.727346e-01 4.814028e-01 0.000000e+00
9.727908e-01 5.125000e-01 0.000000e+00
1.008417e+00 4.815460e-01 0.000000e+00
1.008509e+00 5.125000e-01 0.000000e+00
1.008400e+00 4.551811e-01 0.000000e+00
1.008417e+00 4.815460e-01 0.000000e+00
1.043996e+00 4.554441e-01 0.000000e+00
1.044058e+00 4.816951e-01 0.000000e+00
1.008417e+00 4.815460e-01 0.000000e+00
1.008509e+00 5.125000e-01 0.000000e+00
1.044058e+00 4.816951e-01 0.000000e+00
1.044197e+00 5.125000e-01 0.000000e+00
1.043996e+00 4.554441e-01 0.000000e+00
1.044058e+00 4.816951e-01 0.000000e+00
1.079535e+00 4.557154e-01 0.000000e+00
1.079657e+00 4.818508e-01 0.000000e+00
1.044058e+00 4.816951e-01 0.000000e+00
1.044197e+00 5.125000e-01 0.000000e+00
1.079657e+00 4.818508e-01 0.000000e+00
1.079857e+00 5.125000e-01 0.000000e+00
1.079535e+00 4.557154e-01 0.000000e+00
1.079657e+00 4.818508e-01 0.000000e+00
1.115012e+00 4.559952e-01 0.000000e+00
1.115212e+00 4.820136e-01 0.000000e+00
1.079657e+00 4.818508e-01 0.000000e+00
1.079857e+00 5.125000e-01 0.000000e+00
1.115212e+00 4.820136e-01 0.000000e+00
1.115491e+00 5.125000e-01 0.000000e+00
1.115012e+00 4.559952e-01 0.000000e+00
[...]
<PointData>
<DataArray type="Float32" Name="V1" format="ascii">
1.259121e+02
4.686871e+01
1.259596e+02
4.691628e+01
4.890212e+01
1.025393e+01
4.892238e+01
1.027419e+01
1.259791e+02
4.688768e+01
1.260973e+02
4.700590e+01
4.893952e+01
1.026620e+01
4.899459e+01
1.032127e+01
1.261443e+02
4.695437e+01
1.263395e+02
4.714956e+01
4.902736e+01
1.030359e+01
4.912162e+01
1.039786e+01
1.264116e+02
4.707368e+01
1.266846e+02
4.734663e+01
4.916945e+01
1.036987e+01
4.930276e+01
1.050319e+01
1.267817e+02
4.724590e+01
1.271333e+02
4.759752e+01
4.936599e+01
1.046507e+01
4.953855e+01
1.063762e+01
1.272555e+02
4.747156e+01
1.276867e+02
4.790285e+01
4.961747e+01
1.058938e+01
4.982965e+01
1.080157e+01
1.278342e+02
4.775128e+01
1.283463e+02
4.826339e+01
4.992451e+01
1.074314e+01
5.017687e+01
1.099550e+01
1.285193e+02
4.808583e+01
1.291136e+02
4.868009e+01
5.028794e+01
1.092678e+01
5.058115e+01
1.121999e+01
1.293126e+02
4.847610e+01
1.299906e+02
4.915408e+01
5.070871e+01
1.114081e+01
5.104358e+01
1.147568e+01
1.302159e+02
4.892318e+01
1.309794e+02
4.968664e+01
5.118798e+01
1.138587e+01
5.156544e+01
1.176333e+01
1.312317e+02
4.942828e+01
1.320826e+02
5.027922e+01
5.172704e+01
1.166266e+01
5.214817e+01
1.208379e+01
1.323623e+02
4.999280e+01
1.333030e+02
5.093345e+01
5.232738e+01
1.197201e+01
5.279342e+01
1.243805e+01
1.336107e+02
5.061832e+01
1.346436e+02
5.165118e+01
5.299069e+01
1.231488e+01
5.350301e+01
1.282720e+01
1.349801e+02
5.130661e+01
1.361079e+02
5.243443e+01
5.371883e+01
1.269233e+01
5.427899e+01
1.325249e+01
1.364739e+02
5.205966e+01
1.376997e+02
5.328545e+01
5.451392e+01
1.310557e+01
5.512365e+01
1.371530e+01
1.380959e+02
5.287967e+01
1.394230e+02
5.420672e+01
5.537826e+01
1.355595e+01
5.603950e+01
1.421719e+01
1.398502e+02
5.376906e+01
1.412821e+02
5.520097e+01
5.631443e+01
1.404500e+01
5.702936e+01
1.475993e+01
1.417411e+02
5.473055e+01
1.432818e+02
5.627118e+01
5.732527e+01
1.457446e+01
5.809630e+01
1.534549e+01
1.437735e+02
5.576710e+01
1.454270e+02
5.742063e+01
5.841392e+01
1.514626e+01
5.924376e+01
1.597610e+01
1.459521e+02
5.688200e+01
1.477231e+02
5.865292e+01
5.958383e+01
1.576260e+01
6.047553e+01
1.665429e+01
1.482824e+02
5.807889e+01
1.501755e+02
5.997197e+01
6.083884e+01
1.642599e+01
6.179581e+01
1.738295e+01
1.507696e+02
5.936178e+01
1.527899e+02
6.138208e+01
6.218315e+01
1.713928e+01
6.320926e+01
1.816538e+01
1.534193e+02
6.073513e+01
1.555722e+02
6.288795e+01
6.362144e+01
1.790575e+01
6.472109e+01
1.900541e+01
1.562370e+02
6.220387e+01
1.585279e+02
6.449473e+01
6.515888e+01
1.872923e+01
6.633713e+01
1.990747e+01
1.592279e+02
6.377351e+01
1.616625e+02
6.620808e+01
6.680126e+01
1.961415e+01
6.806391e+01
2.087680e+01
1.623970e+02
6.545022e+01
1.649810e+02
6.803420e+01
6.855502e+01
2.056574e+01
6.990886e+01
2.191959e+01
1.657484e+02
6.724095e+01
1.684873e+02
6.997993e+01
7.042741e+01
2.159026e+01
7.188041e+01
2.304326e+01
1.692849e+02
6.915356e+01
1.721841e+02
7.205280e+01
7.242663e+01
2.269518e+01
7.398826e+01
2.425680e+01
1.730076e+02
7.119705e+01
1.760717e+02
7.426116e+01
7.456201e+01
2.388961e+01
7.624363e+01
2.557124e+01
1.769149e+02
7.338178e+01
1.801474e+02
7.661427e+01
7.684423e+01
2.518475e+01
7.865968e+01
2.700020e+01
1.810011e+02
7.571978e+01
1.844037e+02
7.912246e+01
7.928566e+01
2.659449e+01
8.125195e+01
2.856078e+01
1.852551e+02
7.822518e+01
1.888272e+02
8.179727e+01
8.190073e+01
2.813631e+01
8.403902e+01
3.027461e+01
1.896582e+02
8.091473e+01
1.933950e+02
8.465159e+01
8.470635e+01
2.983244e+01
8.704335e+01
3.216944e+01
1.941811e+02
8.380839e+01
1.980725e+02
8.769980e+01
8.772252e+01
3.171152e+01
9.029230e+01
3.428129e+01
1.987806e+02
8.693010e+01
2.028083e+02
9.095782e+01
9.097287e+01
3.381102e+01
9.381945e+01
3.665760e+01
2.033944e+02
9.030849e+01
2.075288e+02
9.444293e+01
9.448501e+01
3.618084e+01
9.766605e+01
3.936187e+01
2.079355e+02
9.397764e+01
2.121313e+02
9.817346e+01
9.829018e+01
3.888899e+01
1.018822e+02
4.248105e+01
2.122843e+02
9.797788e+01
2.164754e+02
1.021690e+02
1.024204e+02
4.203137e+01
1.065272e+02
4.613822e+01
2.162786e+02
1.023586e+02
2.203744e+02
1.064544e+02
1.068985e+02
4.575047e+01
1.116660e+02
5.051793e+01
2.196948e+02
1.071904e+02
2.235881e+02
1.110837e+02
1.117082e+02
5.027687e+01
1.173595e+02
5.592814e+01
2.222022e+02
1.126203e+02
2.258307e+02
1.162488e+02
1.167108e+02
5.604449e+01
1.236562e+02
6.298983e+01
2.231921e+02
1.191213e+02
2.268435e+02
1.227728e+02
1.214714e+02
6.414322e+01
1.306033e+02
7.327513e+01
2.220359e+02
1.280739e+02
2.266211e+02
1.326591e+02
1.258077e+02
7.877660e+01
1.368793e+02
8.984821e+01
2.226621e+02
1.367886e+02
2.268748e+02
1.410014e+02
1.342416e+02
9.087308e+01
1.410471e+02
9.767865e+01
2.253752e+02
1.424384e+02
2.304968e+02
1.475600e+02
1.406662e+02
9.782132e+01
1.468708e+02
1.040259e+02
2.302118e+02
1.477325e+02
2.360415e+02
1.535622e+02
1.469737e+02
1.039079e+02
1.527667e+02
1.097010e+02
2.364813e+02
1.530427e+02
2.428119e+02
1.593733e+02
1.532539e+02
1.093542e+02
1.586827e+02
1.147830e+02
2.436851e+02
1.584010e+02
2.503081e+02
1.650240e+02
1.594133e+02
1.142777e+02
1.644976e+02
1.193619e+02
2.514572e+02
1.637521e+02
2.581937e+02
1.704886e+02
1.653962e+02
1.187474e+02
1.701487e+02
1.234999e+02
2.595138e+02
1.690258e+02
2.662128e+02
1.757248e+02
1.711535e+02
1.228166e+02
1.755815e+02
1.272445e+02
2.676288e+02
1.741541e+02
2.741653e+02
1.806907e+02
1.766425e+02
1.265259e+02
1.807493e+02
1.306326e+02
2.756192e+02
1.790772e+02
2.818907e+02
1.853487e+02
1.818263e+02
1.299057e+02
1.856125e+02
1.336920e+02
2.833367e+02
1.837445e+02
2.892596e+02
1.896675e+02
1.866733e+02
1.329785e+02
1.901381e+02
1.364434e+02
2.906607e+02
1.881144e+02
2.961676e+02
1.936213e+02
1.911572e+02
1.357604e+02
1.942991e+02
1.389023e+02
2.974939e+02
1.921528e+02
3.025304e+02
1.971894e+02
1.952564e+02
1.382628e+02
1.980735e+02
1.410799e+02
3.037577e+02
1.958324e+02
3.082808e+02
2.003555e+02
1.989535e+02
1.404939e+02
2.014438e+02
1.429842e+02
3.093895e+02
1.991311e+02
3.133652e+02
2.031068e+02
2.022342e+02
1.424594e+02
2.043959e+02
1.446211e+02
3.143399e+02
2.020318e+02
3.177416e+02
2.054335e+02
2.050875e+02
1.441631e+02
2.069191e+02
1.459948e+02
3.185701e+02
2.045208e+02
3.213775e+02
2.073282e+02
2.075046e+02
1.456079e+02
2.090049e+02
1.471082e+02
3.220505e+02
2.065876e+02
3.242483e+02
2.087854e+02
2.094789e+02
1.467955e+02
2.106468e+02
1.479634e+02
3.247587e+02
2.082241e+02
3.263359e+02
2.098013e+02
2.110055e+02
1.477271e+02
2.118402e+02
1.485619e+02
3.266789e+02
2.094244e+02
3.276280e+02
2.103736e+02
2.120808e+02
1.484036e+02
2.125818e+02
1.489047e+02
3.278003e+02
2.101844e+02
3.281171e+02
2.105012e+02
2.127025e+02
1.488253e+02
2.128696e+02
1.489923e+02
</DataArray>
<DataArray type="Float32" Name="V2" format="ascii">
4.514053e-01
4.794801e-01
4.521752e-01
4.802356e-01
4.794801e-01
5.125000e-01
4.802356e-01
5.132426e-01
4.521752e-01
4.802356e-01
4.544747e-01
4.825015e-01
4.802356e-01
5.132426e-01
4.825015e-01
5.154692e-01
4.544747e-01
4.825015e-01
4.583033e-01
4.862742e-01
4.825015e-01
5.154692e-01
4.862742e-01
5.191767e-01
4.583033e-01
4.862742e-01
4.636557e-01
4.915484e-01
4.862742e-01
5.191767e-01
4.915484e-01
5.243596e-01
4.636557e-01
4.915484e-01
4.705240e-01
4.983164e-01
4.915484e-01
5.243596e-01
4.983164e-01
5.310104e-01
4.705240e-01
4.983164e-01
4.788981e-01
5.065682e-01
4.983164e-01
5.310104e-01
5.065682e-01
5.391194e-01
4.788981e-01
5.065682e-01
4.887659e-01
5.162920e-01
5.065682e-01
5.391194e-01
5.162920e-01
5.486748e-01
4.887659e-01
5.162920e-01
5.001130e-01
5.274734e-01
5.162920e-01
5.486748e-01
5.274734e-01
5.596627e-01
5.001130e-01
5.274734e-01
5.129228e-01
5.400962e-01
5.274734e-01
5.596627e-01
5.400962e-01
5.720671e-01
5.129228e-01
5.400962e-01
5.271764e-01
5.541419e-01
5.400962e-01
5.720671e-01
5.541419e-01
5.858697e-01
5.271764e-01
5.541419e-01
5.428532e-01
5.695899e-01
5.541419e-01
5.858697e-01
5.695899e-01
6.010504e-01
5.428532e-01
5.695899e-01
5.599299e-01
5.864175e-01
5.695899e-01
6.010504e-01
5.864175e-01
6.175868e-01
5.599299e-01
5.864175e-01
5.783815e-01
6.046000e-01
5.864175e-01
6.175868e-01
6.046000e-01
6.354548e-01
5.783815e-01
6.046000e-01
5.981807e-01
6.241107e-01
6.046000e-01
6.354548e-01
6.241107e-01
6.546279e-01
5.981807e-01
6.241107e-01
6.192983e-01
6.449206e-01
6.241107e-01
6.546279e-01
6.449206e-01
6.750779e-01
6.192983e-01
6.449206e-01
6.417029e-01
6.669989e-01
6.449206e-01
6.750779e-01
6.669989e-01
6.967744e-01
6.417029e-01
6.669989e-01
6.653611e-01
6.903129e-01
6.669989e-01
6.967744e-01
6.903129e-01
7.196853e-01
6.653611e-01
6.903129e-01
6.902377e-01
7.148278e-01
6.903129e-01
7.196853e-01
7.148278e-01
7.437765e-01
6.902377e-01
7.148278e-01
7.162954e-01
7.405070e-01
7.148278e-01
7.437765e-01
7.405070e-01
7.690121e-01
7.162954e-01
7.405070e-01
7.434949e-01
7.673120e-01
7.405070e-01
7.690121e-01
7.673120e-01
7.953543e-01
7.434949e-01
7.673120e-01
7.717952e-01
7.952025e-01
7.673120e-01
7.953543e-01
7.952025e-01
8.227636e-01
7.717952e-01
7.952025e-01
8.011532e-01
8.241365e-01
7.952025e-01
8.227636e-01
8.241365e-01
8.511989e-01
8.011532e-01
8.241365e-01
8.315241e-01
8.540700e-01
8.241365e-01
8.511989e-01
8.540700e-01
8.806173e-01
8.315241e-01
8.540700e-01
8.628613e-01
8.849576e-01
8.540700e-01
8.806173e-01
8.849576e-01
9.109745e-01
8.628613e-01
8.849576e-01
8.951163e-01
9.167521e-01
8.849576e-01
9.109745e-01
9.167521e-01
9.422247e-01
8.951163e-01
9.167521e-01
9.282387e-01
9.494050e-01
9.167521e-01
9.422247e-01
9.494050e-01
9.743206e-01
9.282387e-01
9.494050e-01
9.621765e-01
9.828660e-01
9.494050e-01
9.743206e-01
9.828660e-01
1.007214e+00
9.621765e-01
9.828660e-01
9.968758e-01
1.017083e+00
9.828660e-01
1.007214e+00
1.017083e+00
1.040855e+00
9.968758e-01
1.017083e+00
1.032281e+00
1.052005e+00
1.017083e+00
1.040855e+00
1.052005e+00
1.075194e+00
1.032281e+00
1.052005e+00
1.068333e+00
1.087575e+00
1.052005e+00
1.075194e+00
1.087575e+00
1.110179e+00
1.068333e+00
1.087575e+00
1.104974e+00
1.123740e+00
1.087575e+00
1.110179e+00
1.123740e+00
1.145759e+00
1.104974e+00
1.123740e+00
1.142141e+00
1.160443e+00
1.123740e+00
1.145759e+00
1.160443e+00
1.181883e+00
1.142141e+00
1.160443e+00
1.179768e+00
1.197626e+00
1.160443e+00
1.181883e+00
1.197626e+00
1.218501e+00
1.179768e+00
1.197626e+00
1.217790e+00
1.235232e+00
1.197626e+00
1.218501e+00
1.235232e+00
1.255562e+00
1.217790e+00
1.235232e+00
1.256134e+00
1.273202e+00
1.235232e+00
1.255562e+00
1.273202e+00
1.293019e+00
1.256134e+00
1.273202e+00
1.294726e+00
1.311477e+00
1.273202e+00
1.293019e+00
1.311477e+00
1.330828e+00
1.294726e+00
1.311477e+00
1.333485e+00
1.349997e+00
1.311477e+00
1.330828e+00
1.349997e+00
1.368950e+00
1.333485e+00
1.349997e+00
1.372325e+00
1.388700e+00
1.349997e+00
1.368950e+00
1.388700e+00
1.407352e+00
1.372325e+00
1.388700e+00
1.411146e+00
1.427519e+00
1.388700e+00
1.407352e+00
1.427519e+00
1.446012e+00
1.411146e+00
1.427519e+00
1.449833e+00
1.466376e+00
1.427519e+00
1.446012e+00
1.466376e+00
1.484923e+00
1.449833e+00
1.466376e+00
1.488225e+00
1.505148e+00
1.466376e+00
1.484923e+00
1.505148e+00
1.524078e+00
1.488225e+00
1.505148e+00
1.526059e+00
1.543565e+00
1.505148e+00
1.524078e+00
1.543565e+00
1.563349e+00
1.526059e+00
1.543565e+00
1.562885e+00
1.580862e+00
1.543565e+00
1.563349e+00
1.580862e+00
1.601106e+00
1.562885e+00
1.580862e+00
1.597577e+00
1.615786e+00
1.580862e+00
1.601106e+00
1.615786e+00
1.636204e+00
1.597577e+00
1.615786e+00
1.629914e+00
1.648565e+00
1.615786e+00
1.636204e+00
1.648565e+00
1.669432e+00
1.629914e+00
1.648565e+00
1.659960e+00
1.679180e+00
1.648565e+00
1.669432e+00
1.679180e+00
1.700600e+00
1.659960e+00
1.679180e+00
1.687809e+00
1.707632e+00
1.679180e+00
1.700600e+00
1.707632e+00
1.729651e+00
1.687809e+00
1.707632e+00
1.713538e+00
1.733949e+00
1.707632e+00
1.729651e+00
1.733949e+00
1.756567e+00
1.713538e+00
1.733949e+00
1.737221e+00
1.758179e+00
1.733949e+00
1.756567e+00
1.758179e+00
1.781367e+00
1.737221e+00
1.758179e+00
1.758933e+00
1.780383e+00
1.758179e+00
1.781367e+00
1.780383e+00
1.804096e+00
1.758933e+00
1.780383e+00
1.778742e+00
1.800625e+00
1.780383e+00
1.804096e+00
1.800625e+00
1.824810e+00
1.778742e+00
1.800625e+00
1.796716e+00
1.818972e+00
1.800625e+00
1.824810e+00
1.818972e+00
1.843574e+00
1.796716e+00
1.818972e+00
1.812915e+00
1.835490e+00
1.818972e+00
1.843574e+00
1.835490e+00
1.860453e+00
1.812915e+00
1.835490e+00
1.827399e+00
1.850242e+00
1.835490e+00
1.860453e+00
1.850242e+00
1.875513e+00
1.827399e+00
1.850242e+00
1.840217e+00
1.863283e+00
1.850242e+00
1.875513e+00
1.863283e+00
1.888815e+00
1.840217e+00
1.863283e+00
1.851418e+00
1.874668e+00
1.863283e+00
1.888815e+00
1.874668e+00
1.900417e+00
1.851418e+00
1.874668e+00
1.861043e+00
1.884441e+00
1.874668e+00
1.900417e+00
1.884441e+00
1.910368e+00
1.861043e+00
1.884441e+00
1.869127e+00
1.892643e+00
1.884441e+00
1.910368e+00
1.892643e+00
1.918713e+00
1.869127e+00
1.892643e+00
1.875701e+00
1.899308e+00
1.892643e+00
1.918713e+00
1.899308e+00
1.925490e+00
1.875701e+00
1.899308e+00
1.880788e+00
1.904463e+00
1.899308e+00
1.925490e+00
1.904463e+00
1.930729e+00
1.880788e+00
1.904463e+00
1.884408e+00
1.908130e+00
1.904463e+00
1.930729e+00
1.908130e+00
1.934454e+00
1.884408e+00
1.908130e+00
1.886575e+00
1.910324e+00
1.908130e+00
1.934454e+00
1.910324e+00
1.936683e+00
1.886575e+00
1.910324e+00
1.887296e+00
1.911055e+00
1.910324e+00
1.936683e+00
1.911055e+00
1.937425e+00
</DataArray>
<DataArray type="Float32" Name="V3" format="ascii">
0.000000e+00
0.000000e+00
2.491971e-02
2.421332e-02
0.000000e+00
0.000000e+00
2.421332e-02
2.338665e-02
2.491971e-02
2.421332e-02
4.977721e-02
4.836514e-02
2.421332e-02
2.338665e-02
4.836514e-02
4.671266e-02
4.977721e-02
4.836514e-02
7.450998e-02
7.239388e-02
4.836514e-02
4.671266e-02
7.239388e-02
6.991748e-02
7.450998e-02
7.239388e-02
9.905586e-02
9.623815e-02
7.239388e-02
6.991748e-02
9.623815e-02
9.294065e-02
9.905586e-02
9.623815e-02
1.233529e-01
1.198368e-01
9.623815e-02
9.294065e-02
1.198368e-01
1.157220e-01
1.233529e-01
1.198368e-01
1.473394e-01
1.431290e-01
1.198368e-01
1.157220e-01
1.431290e-01
1.382015e-01
1.473394e-01
1.431290e-01
1.709541e-01
1.660542e-01
1.431290e-01
1.382015e-01
1.660542e-01
1.603196e-01
1.709541e-01
1.660542e-01
1.941362e-01
1.885523e-01
1.660542e-01
1.603196e-01
1.885523e-01
1.820171e-01
1.941362e-01
1.885523e-01
2.168252e-01
2.105637e-01
1.885523e-01
1.820171e-01
2.105637e-01
2.032353e-01
2.168252e-01
2.105637e-01
2.389613e-01
2.320294e-01
2.105637e-01
2.032353e-01
2.320294e-01
2.239161e-01
2.389613e-01
2.320294e-01
2.604853e-01
2.528910e-01
2.320294e-01
2.239161e-01
2.528910e-01
2.440020e-01
2.604853e-01
2.528910e-01
2.813390e-01
2.730907e-01
2.528910e-01
2.440020e-01
2.730907e-01
2.634361e-01
2.813390e-01
2.730907e-01
3.014645e-01
2.925717e-01
2.730907e-01
2.634361e-01
2.925717e-01
2.821624e-01
3.014645e-01
2.925717e-01
3.208050e-01
3.112779e-01
2.925717e-01
2.821624e-01
3.112779e-01
3.001256e-01
3.208050e-01
3.112779e-01
3.393047e-01
3.291540e-01
3.112779e-01
3.001256e-01
3.291540e-01
3.172713e-01
3.393047e-01
3.291540e-01
3.569086e-01
3.461460e-01
3.291540e-01
3.172713e-01
3.461460e-01
3.335463e-01
3.569086e-01
3.461460e-01
3.735628e-01
3.622005e-01
3.461460e-01
3.335463e-01
3.622005e-01
3.488982e-01
3.735628e-01
3.622005e-01
3.892147e-01
3.772656e-01
3.622005e-01
3.488982e-01
3.772656e-01
3.632758e-01
3.892147e-01
3.772656e-01
4.038124e-01
3.912903e-01
3.772656e-01
3.632758e-01
3.912903e-01
3.766289e-01
4.038124e-01
3.912903e-01
4.173058e-01
4.042251e-01
3.912903e-01
3.766289e-01
4.042251e-01
3.889089e-01
4.173058e-01
4.042251e-01
4.296457e-01
4.160214e-01
4.042251e-01
3.889089e-01
4.160214e-01
4.000683e-01
4.296457e-01
4.160214e-01
4.407843e-01
4.266324e-01
4.160214e-01
4.000683e-01
4.266324e-01
4.100610e-01
4.407843e-01
4.266324e-01
4.506753e-01
4.360125e-01
4.266324e-01
4.100610e-01
4.360125e-01
4.188423e-01
4.506753e-01
4.360125e-01
4.592737e-01
4.441175e-01
4.360125e-01
4.188423e-01
4.441175e-01
4.263694e-01
4.592737e-01
4.441175e-01
4.665360e-01
4.509050e-01
4.441175e-01
4.263694e-01
4.509050e-01
4.326008e-01
4.665360e-01
4.509050e-01
4.724203e-01
4.563339e-01
4.509050e-01
4.326008e-01
4.563339e-01
4.374969e-01
4.724203e-01
4.563339e-01
4.768860e-01
4.603649e-01
4.563339e-01
4.374969e-01
4.603649e-01
4.410200e-01
4.768860e-01
4.603649e-01
4.798942e-01
4.629604e-01
4.603649e-01
4.410200e-01
4.629604e-01
4.431341e-01
4.798942e-01
4.629604e-01
4.814075e-01
4.640845e-01
4.629604e-01
4.431341e-01
4.640845e-01
4.438056e-01
4.814075e-01
4.640845e-01
4.813900e-01
4.637031e-01
4.640845e-01
4.438056e-01
4.637031e-01
4.430029e-01
4.813900e-01
4.637031e-01
4.798073e-01
4.617840e-01
4.637031e-01
4.430029e-01
4.617840e-01
4.406969e-01
4.798073e-01
4.617840e-01
4.766263e-01
4.582967e-01
4.617840e-01
4.406969e-01
4.582967e-01
4.368610e-01
4.766263e-01
4.582967e-01
4.718155e-01
4.532126e-01
4.582967e-01
4.368610e-01
4.532126e-01
4.314713e-01
4.718155e-01
4.532126e-01
4.653445e-01
4.465051e-01
4.532126e-01
4.314713e-01
4.465051e-01
4.245070e-01
4.653445e-01
4.465051e-01
4.571841e-01
4.381491e-01
4.465051e-01
4.245070e-01
4.381491e-01
4.159504e-01
4.571841e-01
4.381491e-01
4.473060e-01
4.281216e-01
4.381491e-01
4.159504e-01
4.281216e-01
4.057879e-01
4.473060e-01
4.281216e-01
4.356830e-01
4.164010e-01
4.281216e-01
4.057879e-01
4.164010e-01
3.940097e-01
4.356830e-01
4.164010e-01
4.222891e-01
4.029673e-01
4.164010e-01
3.940097e-01
4.029673e-01
3.806111e-01
4.222891e-01
4.029673e-01
4.071003e-01
3.878027e-01
4.029673e-01
3.806111e-01
3.878027e-01
3.655936e-01
4.071003e-01
3.878027e-01
3.900989e-01
3.708951e-01
3.878027e-01
3.655936e-01
3.708951e-01
3.489646e-01
3.900989e-01
3.708951e-01
3.712922e-01
3.522534e-01
3.708951e-01
3.489646e-01
3.522534e-01
3.307285e-01
3.712922e-01
3.522534e-01
3.507804e-01
3.319574e-01
3.522534e-01
3.307285e-01
3.319574e-01
3.108159e-01
3.507804e-01
3.319574e-01
3.291765e-01
3.106263e-01
3.319574e-01
3.108159e-01
3.106263e-01
2.894680e-01
3.291765e-01
3.106263e-01
3.082499e-01
2.903212e-01
3.106263e-01
2.894680e-01
2.903212e-01
2.701202e-01
3.082499e-01
2.903212e-01
2.883555e-01
2.711971e-01
2.903212e-01
2.701202e-01
2.711971e-01
2.520840e-01
2.883555e-01
2.711971e-01
2.694110e-01
2.531448e-01
2.711971e-01
2.520840e-01
2.531448e-01
2.351605e-01
2.694110e-01
2.531448e-01
2.512544e-01
2.359661e-01
2.531448e-01
2.351605e-01
2.359661e-01
2.191427e-01
2.512544e-01
2.359661e-01
2.337491e-01
2.194935e-01
2.359661e-01
2.191427e-01
2.194935e-01
2.038521e-01
2.337491e-01
2.194935e-01
2.167753e-01
2.035820e-01
2.194935e-01
2.038521e-01
2.035820e-01
1.891316e-01
2.167753e-01
2.035820e-01
2.002309e-01
1.881100e-01
2.035820e-01
1.891316e-01
1.881100e-01
1.748476e-01
2.002309e-01
1.881100e-01
1.840304e-01
1.729770e-01
1.881100e-01
1.748476e-01
1.729770e-01
1.608891e-01
1.840304e-01
1.729770e-01
1.681024e-01
1.581012e-01
1.729770e-01
1.608891e-01
1.581012e-01
1.471662e-01
1.681024e-01
1.581012e-01
1.523883e-01
1.434168e-01
1.581012e-01
1.471662e-01
1.434168e-01
1.336077e-01
1.523883e-01
1.434168e-01
1.368401e-01
1.288717e-01
1.434168e-01
1.336077e-01
1.288717e-01
1.201582e-01
1.368401e-01
1.288717e-01
1.214190e-01
1.144253e-01
1.288717e-01
1.201582e-01
1.144253e-01
1.067761e-01
1.214190e-01
1.144253e-01
1.060939e-01
1.000466e-01
1.144253e-01
1.067761e-01
1.000466e-01
9.343073e-02
1.060939e-01
1.000466e-01
9.084034e-02
8.571234e-02
1.000466e-01
9.343073e-02
8.571234e-02
8.010073e-02
9.084034e-02
8.571234e-02
7.563898e-02
7.140575e-02
8.571234e-02
8.010073e-02
7.140575e-02
6.677209e-02
7.563898e-02
7.140575e-02
6.047497e-02
5.711513e-02
7.140575e-02
6.677209e-02
5.711513e-02
5.343665e-02
6.047497e-02
5.711513e-02
4.533689e-02
4.283284e-02
5.711513e-02
5.343665e-02
4.283284e-02
4.009079e-02
4.533689e-02
4.283284e-02
3.021602e-02
2.855426e-02
4.283284e-02
4.009079e-02
2.855426e-02
2.673430e-02
3.021602e-02
2.855426e-02
1.510556e-02
1.427698e-02
2.855426e-02
2.673430e-02
1.427698e-02
1.336944e-02
1.510556e-02
1.427698e-02
0.000000e+00
0.000000e+00
1.427698e-02
1.336944e-02
0.000000e+00
0.000000e+00
</DataArray>
<DataArray type="Float32" Name="V4" format="ascii">
8.500000e-01
9.250000e-01
8.500000e-01
9.250000e-01
9.250000e-01
1.000000e+00