<?xml version="1.0"?>
<VTKFile type="UnstructuredGrid" version="0.1" byte_order="LittleEndian" compressor="vtkZLibDataCompressor">
<UnstructuredGrid>
<Piece NumberOfPoints="504" NumberOfCells="126">
<Points>
<DataArray type="Float32" NumberOfComponents="3" format="ascii">
0.000000e+00 4.418616e-01 0.000000e+00
0.000000e+00 4.687050e-01 0.000000e+00
3.700553e-02 4.418697e-01 0.000000e+00
3.700008e-02 4.687073e-01 0.000000e+00
0.000000e+00 4.687050e-01 0.000000e+00
0.000000e+00 5.002734e-01 0.000000e+00
3.700008e-02 4.687073e-01 0.000000e+00
3.699740e-02 5.002734e-01 0.000000e+00
3.700553e-02 4.418697e-01 0.000000e+00
3.700008e-02 4.687073e-01 0.000000e+00
7.401006e-02 4.418841e-01 0.000000e+00
7.399907e-02 4.687152e-01 0.000000e+00
3.700008e-02 4.687073e-01 0.000000e+00
3.699740e-02 5.002734e-01 0.000000e+00
7.399907e-02 4.687152e-01 0.000000e+00
7.399362e-02 5.002734e-01 0.000000e+00
7.401006e-02 4.418841e-01 0.000000e+00
7.399907e-02 4.687152e-01 0.000000e+00
1.110122e-01 4.419082e-01 0.000000e+00
1.109957e-01 4.687282e-01 0.000000e+00
7.399907e-02 4.687152e-01 0.000000e+00
7.399362e-02 5.002734e-01 0.000000e+00
1.109957e-01 4.687282e-01 0.000000e+00
1.109875e-01 5.002734e-01 0.000000e+00
1.110122e-01 4.419082e-01 0.000000e+00
1.109957e-01 4.687282e-01 0.000000e+00
1.480107e-01 4.419418e-01 0.000000e+00
1.479888e-01 4.687464e-01 0.000000e+00
1.109957e-01 4.687282e-01 0.000000e+00
1.109875e-01 5.002734e-01 0.000000e+00
1.479888e-01 4.687464e-01 0.000000e+00
1.479779e-01 5.002734e-01 0.000000e+00
1.480107e-01 4.419418e-01 0.000000e+00
1.479888e-01 4.687464e-01 0.000000e+00
1.850043e-01 4.419850e-01 0.000000e+00
1.849771e-01 4.687698e-01 0.000000e+00
1.479888e-01 4.687464e-01 0.000000e+00
1.479779e-01 5.002734e-01 0.000000e+00
1.849771e-01 4.687698e-01 0.000000e+00
1.849636e-01 5.002734e-01 0.000000e+00
1.850043e-01 4.419850e-01 0.000000e+00
1.849771e-01 4.687698e-01 0.000000e+00
2.219920e-01 4.420377e-01 0.000000e+00
2.219594e-01 4.687983e-01 0.000000e+00
1.849771e-01 4.687698e-01 0.000000e+00
1.849636e-01 5.002734e-01 0.000000e+00
2.219594e-01 4.687983e-01 0.000000e+00
2.219434e-01 5.002734e-01 0.000000e+00
2.219920e-01 4.420377e-01 0.000000e+00
2.219594e-01 4.687983e-01 0.000000e+00
2.589723e-01 4.420999e-01 0.000000e+00
2.589346e-01 4.688320e-01 0.000000e+00
2.219594e-01 4.687983e-01 0.000000e+00
2.219434e-01 5.002734e-01 0.000000e+00
2.589346e-01 4.688320e-01 0.000000e+00
2.589160e-01 5.002734e-01 0.000000e+00
2.589723e-01 4.420999e-01 0.000000e+00
2.589346e-01 4.688320e-01 0.000000e+00
2.959441e-01 4.421716e-01 0.000000e+00
2.959013e-01 4.688708e-01 0.000000e+00
2.589346e-01 4.688320e-01 0.000000e+00
2.589160e-01 5.002734e-01 0.000000e+00
2.959013e-01 4.688708e-01 0.000000e+00
2.958804e-01 5.002734e-01 0.000000e+00
2.959441e-01 4.421716e-01 0.000000e+00
2.959013e-01 4.688708e-01 0.000000e+00
3.329061e-01 4.422527e-01 0.000000e+00
3.328583e-01 4.689147e-01 0.000000e+00
2.959013e-01 4.688708e-01 0.000000e+00
2.958804e-01 5.002734e-01 0.000000e+00
3.328583e-01 4.689147e-01 0.000000e+00
3.328352e-01 5.002734e-01 0.000000e+00
3.329061e-01 4.422527e-01 0.000000e+00
3.328583e-01 4.689147e-01 0.000000e+00
3.698570e-01 4.423431e-01 0.000000e+00
3.698044e-01 4.689637e-01 0.000000e+00
3.328583e-01 4.689147e-01 0.000000e+00
3.328352e-01 5.002734e-01 0.000000e+00
3.698044e-01 4.689637e-01 0.000000e+00
3.697791e-01 5.002734e-01 0.000000e+00
3.698570e-01 4.423431e-01 0.000000e+00
3.698044e-01 4.689637e-01 0.000000e+00
4.067954e-01 4.424427e-01 0.000000e+00
4.067382e-01 4.690177e-01 0.000000e+00
3.698044e-01 4.689637e-01 0.000000e+00
3.697791e-01 5.002734e-01 0.000000e+00
4.067382e-01 4.690177e-01 0.000000e+00
4.067110e-01 5.002734e-01 0.000000e+00
4.067954e-01 4.424427e-01 0.000000e+00
4.067382e-01 4.690177e-01 0.000000e+00
4.437199e-01 4.425516e-01 0.000000e+00
4.436584e-01 4.690767e-01 0.000000e+00
4.067382e-01 4.690177e-01 0.000000e+00
4.067110e-01 5.002734e-01 0.000000e+00
4.436584e-01 4.690767e-01 0.000000e+00
4.436294e-01 5.002734e-01 0.000000e+00
4.437199e-01 4.425516e-01 0.000000e+00
4.436584e-01 4.690767e-01 0.000000e+00
4.806292e-01 4.426696e-01 0.000000e+00
4.805637e-01 4.691406e-01 0.000000e+00
4.436584e-01 4.690767e-01 0.000000e+00
4.436294e-01 5.002734e-01 0.000000e+00
4.805637e-01 4.691406e-01 0.000000e+00
4.805331e-01 5.002734e-01 0.000000e+00
4.806292e-01 4.426696e-01 0.000000e+00
4.805637e-01 4.691406e-01 0.000000e+00
5.175219e-01 4.427966e-01 0.000000e+00
5.174526e-01 4.692095e-01 0.000000e+00
4.805637e-01 4.691406e-01 0.000000e+00
4.805331e-01 5.002734e-01 0.000000e+00
5.174526e-01 4.692095e-01 0.000000e+00
5.174207e-01 5.002734e-01 0.000000e+00
5.175219e-01 4.427966e-01 0.000000e+00
5.174526e-01 4.692095e-01 0.000000e+00
5.543963e-01 4.429325e-01 0.000000e+00
5.543236e-01 4.692832e-01 0.000000e+00
5.174526e-01 4.692095e-01 0.000000e+00
5.174207e-01 5.002734e-01 0.000000e+00
5.543236e-01 4.692832e-01 0.000000e+00
5.542909e-01 5.002734e-01 0.000000e+00
5.543963e-01 4.429325e-01 0.000000e+00
5.543236e-01 4.692832e-01 0.000000e+00
5.912510e-01 4.430773e-01 0.000000e+00
5.911754e-01 4.693618e-01 0.000000e+00
5.543236e-01 4.692832e-01 0.000000e+00
5.542909e-01 5.002734e-01 0.000000e+00
5.911754e-01 4.693618e-01 0.000000e+00
5.911423e-01 5.002734e-01 0.000000e+00
5.912510e-01 4.430773e-01 0.000000e+00
5.911754e-01 4.693618e-01 0.000000e+00
6.280844e-01 4.432309e-01 0.000000e+00
6.280064e-01 4.694451e-01 0.000000e+00
5.911754e-01 4.693618e-01 0.000000e+00
5.911423e-01 5.002734e-01 0.000000e+00
6.280064e-01 4.694451e-01 0.000000e+00
6.279733e-01 5.002734e-01 0.000000e+00
6.280844e-01 4.432309e-01 0.000000e+00
6.280064e-01 4.694451e-01 0.000000e+00
6.648948e-01 4.433931e-01 0.000000e+00
6.648151e-01 4.695332e-01 0.000000e+00
6.280064e-01 4.694451e-01 0.000000e+00
6.279733e-01 5.002734e-01 0.000000e+00
6.648151e-01 4.695332e-01 0.000000e+00
6.647827e-01 5.002734e-01 0.000000e+00
6.648948e-01 4.433931e-01 0.000000e+00
6.648151e-01 4.695332e-01 0.000000e+00
7.016804e-01 4.435638e-01 0.000000e+00
7.015998e-01 4.696260e-01 0.000000e+00
6.648151e-01 4.695332e-01 0.000000e+00
6.647827e-01 5.002734e-01 0.000000e+00
7.015998e-01 4.696260e-01 0.000000e+00
7.015689e-01 5.002734e-01 0.000000e+00
7.016804e-01 4.435638e-01 0.000000e+00
7.015998e-01 4.696260e-01 0.000000e+00
7.384394e-01 4.437429e-01 0.000000e+00
7.383590e-01 4.697235e-01 0.000000e+00
7.015998e-01 4.696260e-01 0.000000e+00
7.015689e-01 5.002734e-01 0.000000e+00
7.383590e-01 4.697235e-01 0.000000e+00
7.383305e-01 5.002734e-01 0.000000e+00
7.384394e-01 4.437429e-01 0.000000e+00
7.383590e-01 4.697235e-01 0.000000e+00
7.751699e-01 4.439304e-01 0.000000e+00
7.750909e-01 4.698256e-01 0.000000e+00
7.383590e-01 4.697235e-01 0.000000e+00
7.383305e-01 5.002734e-01 0.000000e+00
7.750909e-01 4.698256e-01 0.000000e+00
7.750661e-01 5.002734e-01 0.000000e+00
7.751699e-01 4.439304e-01 0.000000e+00
7.750909e-01 4.698256e-01 0.000000e+00
8.118698e-01 4.441260e-01 0.000000e+00
8.117938e-01 4.699324e-01 0.000000e+00
7.750909e-01 4.698256e-01 0.000000e+00
7.750661e-01 5.002734e-01 0.000000e+00
8.117938e-01 4.699324e-01 0.000000e+00
8.117743e-01 5.002734e-01 0.000000e+00
8.118698e-01 4.441260e-01 0.000000e+00
8.117938e-01 4.699324e-01 0.000000e+00
8.485369e-01 4.443298e-01 0.000000e+00
8.484660e-01 4.700437e-01 0.000000e+00
8.117938e-01 4.699324e-01 0.000000e+00
8.117743e-01 5.002734e-01 0.000000e+00
8.484660e-01 4.700437e-01 0.000000e+00
8.484536e-01 5.002734e-01 0.000000e+00
8.485369e-01 4.443298e-01 0.000000e+00
8.484660e-01 4.700437e-01 0.000000e+00
8.851689e-01 4.445415e-01 0.000000e+00
8.851055e-01 4.701598e-01 0.000000e+00
8.484660e-01 4.700437e-01 0.000000e+00
8.484536e-01 5.002734e-01 0.000000e+00
8.851055e-01 4.701598e-01 0.000000e+00
8.851028e-01 5.002734e-01 0.000000e+00
8.851689e-01 4.445415e-01 0.000000e+00
8.851055e-01 4.701598e-01 0.000000e+00
9.217632e-01 4.447611e-01 0.000000e+00
9.217106e-01 4.702804e-01 0.000000e+00
8.851055e-01 4.701598e-01 0.000000e+00
8.851028e-01 5.002734e-01 0.000000e+00
9.217106e-01 4.702804e-01 0.000000e+00
9.217208e-01 5.002734e-01 0.000000e+00
9.217632e-01 4.447611e-01 0.000000e+00
9.217106e-01 4.702804e-01 0.000000e+00
9.583171e-01 4.449885e-01 0.000000e+00
9.582794e-01 4.704059e-01 0.000000e+00
9.217106e-01 4.702804e-01 0.000000e+00
9.217208e-01 5.002734e-01 0.000000e+00
9.582794e-01 4.704059e-01 0.000000e+00
9.583064e-01 5.002734e-01 0.000000e+00
9.583171e-01 4.449885e-01 0.000000e+00
9.582794e-01 4.704059e-01 0.000000e+00
9.948275e-01 4.452237e-01 0.000000e+00
9.948099e-01 4.705362e-01 0.000000e+00
9.582794e-01 4.704059e-01 0.000000e+00
9.583064e-01 5.002734e-01 0.000000e+00
9.948099e-01 4.705362e-01 0.000000e+00
9.948589e-01 5.002734e-01 0.000000e+00
9.948275e-01 4.452237e-01 0.000000e+00
9.948099e-01 4.705362e-01 0.000000e+00
1.031291e+00 4.454666e-01 0.000000e+00
1.031300e+00 4.706715e-01 0.000000e+00
9.948099e-01 4.705362e-01 0.000000e+00
9.948589e-01 5.002734e-01 0.000000e+00
1.031300e+00 4.706715e-01 0.000000e+00
1.031378e+00 5.002734e-01 0.000000e+00
1.031291e+00 4.454666e-01 0.000000e+00
1.031300e+00 4.706715e-01 0.000000e+00
1.067704e+00 4.457171e-01 0.000000e+00
1.067748e+00 4.708121e-01 0.000000e+00
1.031300e+00 4.706715e-01 0.000000e+00
1.031378e+00 5.002734e-01 0.000000e+00
1.067748e+00 4.708121e-01 0.000000e+00
1.067863e+00 5.002734e-01 0.000000e+00
1.067704e+00 4.457171e-01 0.000000e+00
1.067748e+00 4.708121e-01 0.000000e+00
1.104061e+00 4.459754e-01 0.000000e+00
1.104153e+00 4.709583e-01 0.000000e+00
1.067748e+00 4.708121e-01 0.000000e+00
1.067863e+00 5.002734e-01 0.000000e+00
1.104153e+00 4.709583e-01 0.000000e+00
1.104316e+00 5.002734e-01 0.000000e+00
1.104061e+00 4.459754e-01 0.000000e+00
1.104153e+00 4.709583e-01 0.000000e+00
1.140359e+00 4.462413e-01 0.000000e+00
1.140511e+00 4.711105e-01 0.000000e+00
1.104153e+00 4.709583e-01 0.000000e+00
1.104316e+00 5.002734e-01 0.000000e+00
1.140511e+00 4.711105e-01 0.000000e+00
1.140737e+00 5.002734e-01 0.000000e+00
1.140359e+00 4.462413e-01 0.000000e+00
[...]
<PointData>
<DataArray type="Float32" Name="V1" format="ascii">
1.507365e+02
5.712862e+01
1.507933e+02
5.718537e+01
5.949929e+01
1.338020e+01
5.952326e+01
1.340417e+01
1.508155e+02
5.715122e+01
1.509560e+02
5.729170e+01
5.954357e+01
1.339486e+01
5.960916e+01
1.346045e+01
1.510104e+02
5.723082e+01
1.512418e+02
5.746229e+01
5.964787e+01
1.343970e+01
5.976023e+01
1.355206e+01
1.513258e+02
5.737297e+01
1.516491e+02
5.769636e+01
5.981665e+01
1.351911e+01
5.997559e+01
1.367804e+01
1.517624e+02
5.757804e+01
1.521788e+02
5.799446e+01
6.005016e+01
1.363313e+01
6.025589e+01
1.383887e+01
1.523215e+02
5.784665e+01
1.528322e+02
5.835730e+01
6.034894e+01
1.378201e+01
6.060193e+01
1.403500e+01
1.530045e+02
5.817953e+01
1.536108e+02
5.878580e+01
6.071376e+01
1.396614e+01
6.101464e+01
1.426702e+01
1.538130e+02
5.857759e+01
1.545165e+02
5.928108e+01
6.114556e+01
1.418600e+01
6.149514e+01
1.453558e+01
1.547492e+02
5.904191e+01
1.555518e+02
5.984448e+01
6.164551e+01
1.444224e+01
6.204474e+01
1.484147e+01
1.558154e+02
5.957376e+01
1.567191e+02
6.047749e+01
6.221495e+01
1.473558e+01
6.266493e+01
1.518556e+01
1.570143e+02
6.017457e+01
1.580215e+02
6.118186e+01
6.285541e+01
1.506686e+01
6.335743e+01
1.556888e+01
1.583489e+02
6.084602e+01
1.594624e+02
6.195951e+01
6.356867e+01
1.543708e+01
6.412416e+01
1.599257e+01
1.598226e+02
6.158995e+01
1.610453e+02
6.281263e+01
6.435670e+01
1.584734e+01
6.496729e+01
1.645793e+01
1.614393e+02
6.240848e+01
1.627744e+02
6.374360e+01
6.522171e+01
1.629889e+01
6.588923e+01
1.696640e+01
1.632031e+02
6.330393e+01
1.646542e+02
6.475510e+01
6.616618e+01
1.679314e+01
6.689266e+01
1.751961e+01
1.651185e+02
6.427890e+01
1.666896e+02
6.585006e+01
6.719284e+01
1.733168e+01
6.798054e+01
1.811938e+01
1.671904e+02
6.533625e+01
1.688859e+02
6.703169e+01
6.830473e+01
1.791629e+01
6.915616e+01
1.876773e+01
1.694243e+02
6.647916e+01
1.712487e+02
6.830355e+01
6.950516e+01
1.854895e+01
7.042314e+01
1.946694e+01
1.718258e+02
6.771111e+01
1.737842e+02
6.966949e+01
7.079782e+01
1.923190e+01
7.178548e+01
2.021956e+01
1.744011e+02
6.903596e+01
1.764989e+02
7.113375e+01
7.218676e+01
1.996764e+01
7.324758e+01
2.102846e+01
1.771567e+02
7.045795e+01
1.793997e+02
7.270096e+01
7.367644e+01
2.075902e+01
7.481431e+01
2.189689e+01
1.800993e+02
7.198174e+01
1.824938e+02
7.437620e+01
7.527176e+01
2.160921e+01
7.649107e+01
2.282852e+01
1.832362e+02
7.361249e+01
1.857887e+02
7.616498e+01
7.697814e+01
2.252191e+01
7.828382e+01
2.382759e+01
1.865745e+02
7.535592e+01
1.892919e+02
7.807336e+01
7.880155e+01
2.350128e+01
8.019922e+01
2.489895e+01
1.901215e+02
7.721834e+01
1.930112e+02
8.010797e+01
8.074863e+01
2.455217e+01
8.224469e+01
2.604823e+01
1.938845e+02
7.920677e+01
1.969538e+02
8.227605e+01
8.282674e+01
2.568020e+01
8.442855e+01
2.728200e+01
1.978701e+02
8.132908e+01
2.011266e+02
8.458558e+01
8.504410e+01
2.689198e+01
8.676023e+01
2.860810e+01
2.020843e+02
8.359410e+01
2.055355e+02
8.704530e+01
8.740992e+01
2.819536e+01
8.925040e+01
3.003584e+01
2.065314e+02
8.601180e+01
2.101845e+02
8.966487e+01
8.993460e+01
2.959976e+01
9.191132e+01
3.157648e+01
2.112139e+02
8.859355e+01
2.150753e+02
9.245494e+01
9.262993e+01
3.111657e+01
9.475713e+01
3.324376e+01
2.161310e+02
9.135239e+01
2.202060e+02
9.542734e+01
9.550940e+01
3.275975e+01
9.780435e+01
3.505470e+01
2.212774e+02
9.430344e+01
2.255691e+02
9.859519e+01
9.858855e+01
3.454664e+01
1.010724e+02
3.703053e+01
2.266411e+02
9.746439e+01
2.311498e+02
1.019731e+02
1.018855e+02
3.649895e+01
1.045846e+02
3.919811e+01
2.322012e+02
1.008561e+02
2.369225e+02
1.055774e+02
1.054213e+02
3.864429e+01
1.083688e+02
4.159183e+01
2.379245e+02
1.045033e+02
2.428472e+02
1.094260e+02
1.092208e+02
4.101818e+01
1.124590e+02
4.425633e+01
2.437607e+02
1.084355e+02
2.488641e+02
1.135388e+02
1.133134e+02
4.366708e+01
1.168966e+02
4.725031e+01
2.496371e+02
1.126878e+02
2.548864e+02
1.179371e+02
1.177329e+02
4.665274e+01
1.217325e+02
5.065232e+01
2.554511e+02
1.173016e+02
2.607923e+02
1.226429e+02
1.225178e+02
5.005942e+01
1.270283e+02
5.456991e+01
2.610612e+02
1.223257e+02
2.664149e+02
1.276794e+02
1.277066e+02
5.400581e+01
1.328560e+02
5.915519e+01
2.662735e+02
1.278189e+02
2.715300e+02
1.330754e+02
1.333252e+02
5.866821e+01
1.392930e+02
6.463601e+01
2.708170e+02
1.338676e+02
2.758471e+02
1.388977e+02
1.393460e+02
6.433296e+01
1.464064e+02
7.139336e+01
2.742714e+02
1.406652e+02
2.790127e+02
1.454064e+02
1.455754e+02
7.154820e+01
1.542324e+02
8.020520e+01
2.757807e+02
1.488974e+02
2.806798e+02
1.537966e+02
1.513378e+02
8.184957e+01
1.627539e+02
9.326565e+01
2.748559e+02
1.604104e+02
2.809228e+02
1.664774e+02
1.574551e+02
1.006444e+02
1.700837e+02
1.132729e+02
2.768542e+02
1.703367e+02
2.825302e+02
1.760128e+02
1.676341e+02
1.129919e+02
1.757021e+02
1.210599e+02
2.813796e+02
1.770719e+02
2.882065e+02
1.838988e+02
1.754721e+02
1.211307e+02
1.829978e+02
1.286564e+02
2.882788e+02
1.837154e+02
2.959091e+02
1.913457e+02
1.833635e+02
1.283730e+02
1.904281e+02
1.354376e+02
2.967189e+02
1.904273e+02
3.048697e+02
1.985781e+02
1.911877e+02
1.349066e+02
1.978216e+02
1.415405e+02
3.061346e+02
1.971808e+02
3.145539e+02
2.056001e+02
1.988427e+02
1.408395e+02
2.050613e+02
1.470580e+02
3.161032e+02
2.038922e+02
3.245752e+02
2.123642e+02
2.062548e+02
1.462447e+02
2.120653e+02
1.520553e+02
3.262923e+02
2.104687e+02
3.346357e+02
2.188121e+02
2.133598e+02
1.511770e+02
2.187641e+02
1.565813e+02
3.364344e+02
2.168240e+02
3.444987e+02
2.248883e+02
2.201019e+02
1.556768e+02
2.250979e+02
1.606728e+02
3.463119e+02
2.228833e+02
3.539734e+02
2.305447e+02
2.264324e+02
1.597733e+02
2.310159e+02
1.643568e+02
3.557475e+02
2.285833e+02
3.629053e+02
2.357412e+02
2.323102e+02
1.634872e+02
2.364759e+02
1.676530e+02
3.645971e+02
2.338721e+02
3.711697e+02
2.404446e+02
2.377006e+02
1.668329e+02
2.414433e+02
1.705756e+02
3.727440e+02
2.387069e+02
3.786657e+02
2.446287e+02
2.425753e+02
1.698198e+02
2.458898e+02
1.731343e+02
3.800943e+02
2.430534e+02
3.853132e+02
2.482723e+02
2.469110e+02
1.724544e+02
2.497927e+02
1.753361e+02
3.865734e+02
2.468841e+02
3.910484e+02
2.513591e+02
2.506892e+02
1.747408e+02
2.531341e+02
1.771856e+02
3.921226e+02
2.501770e+02
3.958221e+02
2.538764e+02
2.538952e+02
1.766814e+02
2.558998e+02
1.786860e+02
3.966964e+02
2.529151e+02
3.995963e+02
2.558151e+02
2.565173e+02
1.782777e+02
2.580792e+02
1.798395e+02
4.002605e+02
2.550853e+02
4.023436e+02
2.571684e+02
2.585471e+02
1.795306e+02
2.596641e+02
1.806476e+02
4.027902e+02
2.566779e+02
4.040446e+02
2.579323e+02
2.599782e+02
1.804403e+02
2.606490e+02
1.811111e+02
4.042691e+02
2.576858e+02
4.046880e+02
2.581047e+02
2.608067e+02
1.810071e+02
2.610304e+02
1.812308e+02
</DataArray>
<DataArray type="Float32" Name="V2" format="ascii">
4.418616e-01
4.687050e-01
4.426549e-01
4.694841e-01
4.687050e-01
5.002734e-01
4.694841e-01
5.010403e-01
4.426549e-01
4.694841e-01
4.450239e-01
4.718211e-01
4.694841e-01
5.010403e-01
4.718211e-01
5.033398e-01
4.450239e-01
4.718211e-01
4.489684e-01
4.757122e-01
4.718211e-01
5.033398e-01
4.757122e-01
5.071687e-01
4.489684e-01
4.757122e-01
4.544828e-01
4.811520e-01
4.757122e-01
5.071687e-01
4.811520e-01
5.125213e-01
4.544828e-01
4.811520e-01
4.615589e-01
4.881325e-01
4.811520e-01
5.125213e-01
4.881325e-01
5.193900e-01
4.615589e-01
4.881325e-01
4.701867e-01
4.966436e-01
4.881325e-01
5.193900e-01
4.966436e-01
5.277647e-01
4.701867e-01
4.966436e-01
4.803535e-01
5.066729e-01
4.966436e-01
5.277647e-01
5.066729e-01
5.376335e-01
4.803535e-01
5.066729e-01
4.920446e-01
5.182060e-01
5.066729e-01
5.376335e-01
5.182060e-01
5.489818e-01
4.920446e-01
5.182060e-01
5.052430e-01
5.312260e-01
5.182060e-01
5.489818e-01
5.312260e-01
5.617933e-01
5.052430e-01
5.312260e-01
5.199295e-01
5.457141e-01
5.312260e-01
5.617933e-01
5.457141e-01
5.760494e-01
5.199295e-01
5.457141e-01
5.360827e-01
5.616490e-01
5.457141e-01
5.760494e-01
5.616490e-01
5.917291e-01
5.360827e-01
5.616490e-01
5.536790e-01
5.790076e-01
5.616490e-01
5.917291e-01
5.790076e-01
6.088098e-01
5.536790e-01
5.790076e-01
5.726926e-01
5.977644e-01
5.790076e-01
6.088098e-01
5.977644e-01
6.272663e-01
5.726926e-01
5.977644e-01
5.930956e-01
6.178919e-01
5.977644e-01
6.272663e-01
6.178919e-01
6.470716e-01
5.930956e-01
6.178919e-01
6.148580e-01
6.393606e-01
6.178919e-01
6.470716e-01
6.393606e-01
6.681966e-01
6.148580e-01
6.393606e-01
6.379477e-01
6.621388e-01
6.393606e-01
6.681966e-01
6.621388e-01
6.906103e-01
6.379477e-01
6.621388e-01
6.623306e-01
6.861929e-01
6.621388e-01
6.906103e-01
6.861929e-01
7.142795e-01
6.623306e-01
6.861929e-01
6.879704e-01
7.114873e-01
6.861929e-01
7.142795e-01
7.114873e-01
7.391692e-01
6.879704e-01
7.114873e-01
7.148290e-01
7.379843e-01
7.114873e-01
7.391692e-01
7.379843e-01
7.652424e-01
7.148290e-01
7.379843e-01
7.428662e-01
7.656444e-01
7.379843e-01
7.652424e-01
7.656444e-01
7.924604e-01
7.428662e-01
7.656444e-01
7.720399e-01
7.944264e-01
7.656444e-01
7.924604e-01
7.944264e-01
8.207826e-01
7.720399e-01
7.944264e-01
8.023062e-01
8.242869e-01
7.944264e-01
8.207826e-01
8.242869e-01
8.501665e-01
8.023062e-01
8.242869e-01
8.336190e-01
8.551810e-01
8.242869e-01
8.501665e-01
8.551810e-01
8.805680e-01
8.336190e-01
8.551810e-01
8.659308e-01
8.870619e-01
8.551810e-01
8.805680e-01
8.870619e-01
9.119415e-01
8.659308e-01
8.870619e-01
8.991919e-01
9.198813e-01
8.870619e-01
9.119415e-01
9.198813e-01
9.442397e-01
8.991919e-01
9.198813e-01
9.333509e-01
9.535891e-01
9.198813e-01
9.442397e-01
9.535891e-01
9.774139e-01
9.333509e-01
9.535891e-01
9.683547e-01
9.881338e-01
9.535891e-01
9.774139e-01
9.881338e-01
1.011414e+00
9.683547e-01
9.881338e-01
1.004148e+00
1.023462e+00
9.881338e-01
1.011414e+00
1.023462e+00
1.046189e+00
1.004148e+00
1.023462e+00
1.040675e+00
1.059520e+00
1.023462e+00
1.046189e+00
1.059520e+00
1.081686e+00
1.040675e+00
1.059520e+00
1.077875e+00
1.096251e+00
1.059520e+00
1.081686e+00
1.096251e+00
1.117852e+00
1.077875e+00
1.096251e+00
1.115690e+00
1.133599e+00
1.096251e+00
1.117852e+00
1.133599e+00
1.154634e+00
1.115690e+00
1.133599e+00
1.154055e+00
1.171506e+00
1.133599e+00
1.154634e+00
1.171506e+00
1.191976e+00
1.154055e+00
1.171506e+00
1.192905e+00
1.209911e+00
1.171506e+00
1.191976e+00
1.209911e+00
1.229827e+00
1.192905e+00
1.209911e+00
1.232174e+00
1.248756e+00
1.209911e+00
1.229827e+00
1.248756e+00
1.268131e+00
1.232174e+00
1.248756e+00
1.271791e+00
1.287980e+00
1.248756e+00
1.268131e+00
1.287980e+00
1.306838e+00
1.271791e+00
1.287980e+00
1.311682e+00
1.327520e+00
1.287980e+00
1.306838e+00
1.327520e+00
1.345897e+00
1.311682e+00
1.327520e+00
1.351768e+00
1.367316e+00
1.327520e+00
1.345897e+00
1.367316e+00
1.385263e+00
1.351768e+00
1.367316e+00
1.391966e+00
1.407304e+00
1.367316e+00
1.385263e+00
1.407304e+00
1.424893e+00
1.391966e+00
1.407304e+00
1.432187e+00
1.447420e+00
1.407304e+00
1.424893e+00
1.447420e+00
1.464754e+00
1.432187e+00
1.447420e+00
1.472328e+00
1.487594e+00
1.447420e+00
1.464754e+00
1.487594e+00
1.504824e+00
1.472328e+00
1.487594e+00
1.512268e+00
1.527745e+00
1.487594e+00
1.504824e+00
1.527745e+00
1.545098e+00
1.512268e+00
1.527745e+00
1.551839e+00
1.567746e+00
1.527745e+00
1.545098e+00
1.567746e+00
1.585574e+00
1.551839e+00
1.567746e+00
1.590771e+00
1.607305e+00
1.567746e+00
1.585574e+00
1.607305e+00
1.626071e+00
1.590771e+00
1.607305e+00
1.628502e+00
1.645428e+00
1.607305e+00
1.626071e+00
1.645428e+00
1.664413e+00
1.628502e+00
1.645428e+00
1.663817e+00
1.680980e+00
1.645428e+00
1.664413e+00
1.680980e+00
1.700251e+00
1.663817e+00
1.680980e+00
1.696659e+00
1.714301e+00
1.680980e+00
1.700251e+00
1.714301e+00
1.734064e+00
1.696659e+00
1.714301e+00
1.727115e+00
1.745341e+00
1.714301e+00
1.734064e+00
1.745341e+00
1.765686e+00
1.727115e+00
1.745341e+00
1.755266e+00
1.774098e+00
1.745341e+00
1.765686e+00
1.774098e+00
1.795057e+00
1.755266e+00
1.774098e+00
1.781188e+00
1.800603e+00
1.774098e+00
1.795057e+00
1.800603e+00
1.822166e+00
1.781188e+00
1.800603e+00
1.804955e+00
1.824908e+00
1.800603e+00
1.822166e+00
1.824908e+00
1.847039e+00
1.804955e+00
1.824908e+00
1.826640e+00
1.847073e+00
1.824908e+00
1.847039e+00
1.847073e+00
1.869724e+00
1.826640e+00
1.847073e+00
1.846314e+00
1.867167e+00
1.847073e+00
1.869724e+00
1.867167e+00
1.890281e+00
1.846314e+00
1.867167e+00
1.864044e+00
1.885259e+00
1.867167e+00
1.890281e+00
1.885259e+00
1.908776e+00
1.864044e+00
1.885259e+00
1.879891e+00
1.901413e+00
1.885259e+00
1.908776e+00
1.901413e+00
1.925279e+00
1.879891e+00
1.901413e+00
1.893914e+00
1.915693e+00
1.901413e+00
1.925279e+00
1.915693e+00
1.939854e+00
1.893914e+00
1.915693e+00
1.906165e+00
1.928155e+00
1.915693e+00
1.939854e+00
1.928155e+00
1.952563e+00
1.906165e+00
1.928155e+00
1.916689e+00
1.938852e+00
1.928155e+00
1.952563e+00
1.938852e+00
1.963463e+00
1.916689e+00
1.938852e+00
1.925527e+00
1.947827e+00
1.938852e+00
1.963463e+00
1.947827e+00
1.972601e+00
1.925527e+00
1.947827e+00
1.932712e+00
1.955119e+00
1.947827e+00
1.972601e+00
1.955119e+00
1.980021e+00
1.932712e+00
1.955119e+00
1.938271e+00
1.960758e+00
1.955119e+00
1.980021e+00
1.960758e+00
1.985756e+00
1.938271e+00
1.960758e+00
1.942227e+00
1.964769e+00
1.960758e+00
1.985756e+00
1.964769e+00
1.989834e+00
1.942227e+00
1.964769e+00
1.944595e+00
1.967168e+00
1.964769e+00
1.989834e+00
1.967168e+00
1.992272e+00
1.944595e+00
1.967168e+00
1.945383e+00
1.967967e+00
1.967168e+00
1.992272e+00
1.967967e+00
1.993084e+00
</DataArray>
<DataArray type="Float32" Name="V3" format="ascii">
0.000000e+00
0.000000e+00
2.597791e-02
2.530338e-02
0.000000e+00
0.000000e+00
2.530338e-02
2.451373e-02
2.597791e-02
2.530338e-02
5.189195e-02
5.054356e-02
2.530338e-02
2.451373e-02
5.054356e-02
4.896507e-02
5.189195e-02
5.054356e-02
7.767791e-02
7.565723e-02
5.054356e-02
4.896507e-02
7.565723e-02
7.329169e-02
7.767791e-02
7.565723e-02
1.032720e-01
1.005813e-01
7.565723e-02
7.329169e-02
1.005813e-01
9.743142e-02
1.032720e-01
1.005813e-01
1.286105e-01
1.252529e-01
1.005813e-01
9.743142e-02
1.252529e-01
1.213223e-01
1.286105e-01
1.252529e-01
1.536302e-01
1.496095e-01
1.252529e-01
1.213223e-01
1.496095e-01
1.449025e-01
1.536302e-01
1.496095e-01
1.782681e-01
1.735889e-01
1.496095e-01
1.449025e-01
1.735889e-01
1.681109e-01
1.782681e-01
1.735889e-01
2.024617e-01
1.971294e-01
1.735889e-01
1.681109e-01
1.971294e-01
1.908866e-01
2.024617e-01
1.971294e-01
2.261490e-01
2.201695e-01
1.971294e-01
1.908866e-01
2.201695e-01
2.131690e-01
2.261490e-01
2.201695e-01
2.492686e-01
2.426488e-01
2.201695e-01
2.131690e-01
2.426488e-01
2.348984e-01
2.492686e-01
2.426488e-01
2.717597e-01
2.645071e-01
2.426488e-01
2.348984e-01
2.645071e-01
2.560155e-01
2.717597e-01
2.645071e-01
2.935623e-01
2.856852e-01
2.645071e-01
2.560155e-01
2.856852e-01
2.764620e-01
2.935623e-01
2.856852e-01
3.146172e-01
3.061244e-01
2.856852e-01
2.764620e-01
3.061244e-01
2.961801e-01
3.146172e-01
3.061244e-01
3.348661e-01
3.257672e-01
3.061244e-01
2.961801e-01
3.257672e-01
3.151129e-01
3.348661e-01
3.257672e-01
3.542515e-01
3.445569e-01
3.257672e-01
3.151129e-01
3.445569e-01
3.332045e-01
3.542515e-01
3.445569e-01
3.727171e-01
3.624376e-01
3.445569e-01
3.332045e-01
3.624376e-01
3.503999e-01
3.727171e-01
3.624376e-01
3.902075e-01
3.793548e-01
3.624376e-01
3.503999e-01
3.793548e-01
3.666453e-01
3.902075e-01
3.793548e-01
4.066685e-01
3.952549e-01
3.793548e-01
3.666453e-01
3.952549e-01
3.818880e-01
4.066685e-01
3.952549e-01
4.220471e-01
4.100855e-01
3.952549e-01
3.818880e-01
4.100855e-01
3.960763e-01
4.220471e-01
4.100855e-01
4.362916e-01
4.237957e-01
4.100855e-01
3.960763e-01
4.237957e-01
4.091600e-01
4.362916e-01
4.237957e-01
4.493516e-01
4.363356e-01
4.237957e-01
4.091600e-01
4.363356e-01
4.210902e-01
4.493516e-01
4.363356e-01
4.611781e-01
4.476570e-01
4.363356e-01
4.210902e-01
4.476570e-01
4.318194e-01
4.611781e-01
4.476570e-01
4.717235e-01
4.577129e-01
4.476570e-01
4.318194e-01
4.577129e-01
4.413015e-01
4.717235e-01
4.577129e-01
4.809417e-01
4.664581e-01
4.577129e-01
4.413015e-01
4.664581e-01
4.494922e-01
4.809417e-01
4.664581e-01
4.887881e-01
4.738486e-01
4.664581e-01
4.494922e-01
4.738486e-01
4.563487e-01
4.887881e-01
4.738486e-01
4.952197e-01
4.798425e-01
4.738486e-01
4.563487e-01
4.798425e-01
4.618299e-01
4.952197e-01
4.798425e-01
5.001951e-01
4.843992e-01
4.798425e-01
4.618299e-01
4.843992e-01
4.658966e-01
5.001951e-01
4.843992e-01
5.036744e-01
4.874800e-01
4.843992e-01
4.658966e-01
4.874800e-01
4.685118e-01
5.036744e-01
4.874800e-01
5.056195e-01
4.890480e-01
4.874800e-01
4.685118e-01
4.890480e-01
4.696400e-01
5.056195e-01
4.890480e-01
5.059939e-01
4.890683e-01
4.890480e-01
4.696400e-01
4.890683e-01
4.692484e-01
5.059939e-01
4.890683e-01
5.047627e-01
4.875075e-01
4.890683e-01
4.692484e-01
4.875075e-01
4.673062e-01
5.047627e-01
4.875075e-01
5.018926e-01
4.843344e-01
4.875075e-01
4.673062e-01
4.843344e-01
4.637852e-01
5.018926e-01
4.843344e-01
4.973518e-01
4.795198e-01
4.843344e-01
4.637852e-01
4.795198e-01
4.586596e-01
4.973518e-01
4.795198e-01
4.911100e-01
4.730363e-01
4.795198e-01
4.586596e-01
4.730363e-01
4.519068e-01
4.911100e-01
4.730363e-01
4.831383e-01
4.648584e-01
4.730363e-01
4.519068e-01
4.648584e-01
4.435069e-01
4.831383e-01
4.648584e-01
4.734092e-01
4.549627e-01
4.648584e-01
4.435069e-01
4.549627e-01
4.334436e-01
4.734092e-01
4.549627e-01
4.618961e-01
4.433276e-01
4.549627e-01
4.334436e-01
4.433276e-01
4.217043e-01
4.618961e-01
4.433276e-01
4.485738e-01
4.299331e-01
4.433276e-01
4.217043e-01
4.299331e-01
4.082806e-01
4.485738e-01
4.299331e-01
4.334182e-01
4.147611e-01
4.299331e-01
4.082806e-01
4.147611e-01
3.931693e-01
4.334182e-01
4.147611e-01
4.164074e-01
3.977955e-01
4.147611e-01
3.931693e-01
3.977955e-01
3.763733e-01
4.164074e-01
3.977955e-01
3.975264e-01
3.790265e-01
3.977955e-01
3.763733e-01
3.790265e-01
3.579028e-01
3.975264e-01
3.790265e-01
3.767865e-01
3.584672e-01
3.790265e-01
3.579028e-01
3.584672e-01
3.377654e-01
3.767865e-01
3.584672e-01
3.542986e-01
3.362076e-01
3.584672e-01
3.377654e-01
3.362076e-01
3.158674e-01
3.542986e-01
3.362076e-01
3.309365e-01
3.131693e-01
3.362076e-01
3.158674e-01
3.131693e-01
2.928968e-01
3.309365e-01
3.131693e-01
3.086659e-01
2.915641e-01
3.131693e-01
2.928968e-01
2.915641e-01
2.722964e-01
3.086659e-01
2.915641e-01
2.875953e-01
2.712862e-01
2.915641e-01
2.722964e-01
2.712862e-01
2.530965e-01
2.875953e-01
2.712862e-01
2.675553e-01
2.521465e-01
2.712862e-01
2.530965e-01
2.521465e-01
2.350749e-01
2.675553e-01
2.521465e-01
2.483724e-01
2.339406e-01
2.521465e-01
2.350749e-01
2.339406e-01
2.180190e-01
2.483724e-01
2.339406e-01
2.298953e-01
2.164896e-01
2.339406e-01
2.180190e-01
2.164896e-01
2.017389e-01
2.298953e-01
2.164896e-01
2.119937e-01
1.996402e-01
2.164896e-01
2.017389e-01
1.996402e-01
1.860694e-01
2.119937e-01
1.996402e-01
1.945573e-01
1.832643e-01
1.996402e-01
1.860694e-01
1.832643e-01
1.708702e-01
1.945573e-01
1.832643e-01
1.774940e-01
1.672560e-01
1.832643e-01
1.708702e-01
1.672560e-01
1.560255e-01
1.774940e-01
1.672560e-01
1.607273e-01
1.515292e-01
1.672560e-01
1.560255e-01
1.515292e-01
1.414419e-01
1.607273e-01
1.515292e-01
1.441943e-01
1.360149e-01
1.515292e-01
1.414419e-01
1.360149e-01
1.270451e-01
1.441943e-01
1.360149e-01
1.278436e-01
1.206582e-01
1.360149e-01
1.270451e-01
1.206582e-01
1.127779e-01
1.278436e-01
1.206582e-01
1.116337e-01
1.054164e-01
1.206582e-01
1.127779e-01
1.054164e-01
9.859656e-02
1.116337e-01
1.054164e-01
9.553119e-02
9.025630e-02
1.054164e-01
9.859656e-02
9.025630e-02
8.446924e-02
9.553119e-02
9.025630e-02
7.950930e-02
7.515320e-02
9.025630e-02
8.446924e-02
7.515320e-02
7.037321e-02
7.950930e-02
7.515320e-02
6.354687e-02
6.008863e-02
7.515320e-02
7.037321e-02
6.008863e-02
5.629315e-02
6.354687e-02
6.008863e-02
4.762707e-02
4.504922e-02
6.008863e-02
5.629315e-02
4.504922e-02
4.221955e-02
4.762707e-02
4.504922e-02
3.173642e-02
3.002550e-02
4.504922e-02
4.221955e-02
3.002550e-02
2.814721e-02
3.173642e-02
3.002550e-02
1.586388e-02
1.501073e-02
3.002550e-02
2.814721e-02
1.501073e-02
1.407405e-02
1.586388e-02
1.501073e-02
0.000000e+00
0.000000e+00
1.501073e-02
1.407405e-02
0.000000e+00
0.000000e+00
</DataArray>
<DataArray type="Float32" Name="V4" format="ascii">
8.500000e-01
9.250000e-01
8.500000e-01
9.250000e-01
9.250000e-01
1.000000e+00