<?xml version="1.0"?>
<VTKFile type="UnstructuredGrid" version="0.1" byte_order="LittleEndian" compressor="vtkZLibDataCompressor">
<UnstructuredGrid>
<Piece NumberOfPoints="504" NumberOfCells="126">
<Points>
<DataArray type="Float32" NumberOfComponents="3" format="ascii">
0.000000e+00 6.982613e-01 0.000000e+00
0.000000e+00 7.449752e-01 0.000000e+00
2.806336e-02 6.982729e-01 0.000000e+00
2.803335e-02 7.449811e-01 0.000000e+00
0.000000e+00 7.449752e-01 0.000000e+00
0.000000e+00 8.000000e-01 0.000000e+00
2.803335e-02 7.449811e-01 0.000000e+00
2.802021e-02 8.000000e-01 0.000000e+00
2.806336e-02 6.982729e-01 0.000000e+00
2.803335e-02 7.449811e-01 0.000000e+00
5.612652e-02 6.983041e-01 0.000000e+00
5.606664e-02 7.449986e-01 0.000000e+00
2.803335e-02 7.449811e-01 0.000000e+00
2.802021e-02 8.000000e-01 0.000000e+00
5.606664e-02 7.449986e-01 0.000000e+00
5.604053e-02 8.000000e-01 0.000000e+00
5.612652e-02 6.983041e-01 0.000000e+00
5.606664e-02 7.449986e-01 0.000000e+00
8.418900e-02 6.983562e-01 0.000000e+00
8.409982e-02 7.450277e-01 0.000000e+00
5.606664e-02 7.449986e-01 0.000000e+00
5.604053e-02 8.000000e-01 0.000000e+00
8.409982e-02 7.450277e-01 0.000000e+00
8.406119e-02 8.000000e-01 0.000000e+00
8.418900e-02 6.983562e-01 0.000000e+00
8.409982e-02 7.450277e-01 0.000000e+00
1.122505e-01 6.984294e-01 0.000000e+00
1.121329e-01 7.450687e-01 0.000000e+00
8.409982e-02 7.450277e-01 0.000000e+00
8.406119e-02 8.000000e-01 0.000000e+00
1.121329e-01 7.450687e-01 0.000000e+00
1.120824e-01 8.000000e-01 0.000000e+00
1.122505e-01 6.984294e-01 0.000000e+00
1.121329e-01 7.450687e-01 0.000000e+00
1.403105e-01 6.985236e-01 0.000000e+00
1.401657e-01 7.451218e-01 0.000000e+00
1.121329e-01 7.450687e-01 0.000000e+00
1.120824e-01 8.000000e-01 0.000000e+00
1.401657e-01 7.451218e-01 0.000000e+00
1.401046e-01 8.000000e-01 0.000000e+00
1.403105e-01 6.985236e-01 0.000000e+00
1.401657e-01 7.451218e-01 0.000000e+00
1.683685e-01 6.986391e-01 0.000000e+00
1.681985e-01 7.451872e-01 0.000000e+00
1.401657e-01 7.451218e-01 0.000000e+00
1.401046e-01 8.000000e-01 0.000000e+00
1.681985e-01 7.451872e-01 0.000000e+00
1.681283e-01 8.000000e-01 0.000000e+00
1.683685e-01 6.986391e-01 0.000000e+00
1.681985e-01 7.451872e-01 0.000000e+00
1.964238e-01 6.987762e-01 0.000000e+00
1.962312e-01 7.452655e-01 0.000000e+00
1.681985e-01 7.451872e-01 0.000000e+00
1.681283e-01 8.000000e-01 0.000000e+00
1.962312e-01 7.452655e-01 0.000000e+00
1.961542e-01 8.000000e-01 0.000000e+00
1.964238e-01 6.987762e-01 0.000000e+00
1.962312e-01 7.452655e-01 0.000000e+00
2.244756e-01 6.989353e-01 0.000000e+00
2.242640e-01 7.453572e-01 0.000000e+00
1.962312e-01 7.452655e-01 0.000000e+00
1.961542e-01 8.000000e-01 0.000000e+00
2.242640e-01 7.453572e-01 0.000000e+00
2.241834e-01 8.000000e-01 0.000000e+00
2.244756e-01 6.989353e-01 0.000000e+00
2.242640e-01 7.453572e-01 0.000000e+00
2.525226e-01 6.991167e-01 0.000000e+00
2.522974e-01 7.454632e-01 0.000000e+00
2.242640e-01 7.453572e-01 0.000000e+00
2.241834e-01 8.000000e-01 0.000000e+00
2.522974e-01 7.454632e-01 0.000000e+00
2.522175e-01 8.000000e-01 0.000000e+00
2.525226e-01 6.991167e-01 0.000000e+00
2.522974e-01 7.454632e-01 0.000000e+00
2.805634e-01 6.993214e-01 0.000000e+00
2.803316e-01 7.455846e-01 0.000000e+00
2.522974e-01 7.454632e-01 0.000000e+00
2.522175e-01 8.000000e-01 0.000000e+00
2.803316e-01 7.455846e-01 0.000000e+00
2.802586e-01 8.000000e-01 0.000000e+00
2.805634e-01 6.993214e-01 0.000000e+00
2.803316e-01 7.455846e-01 0.000000e+00
3.085960e-01 6.995500e-01 0.000000e+00
3.083674e-01 7.457229e-01 0.000000e+00
2.803316e-01 7.455846e-01 0.000000e+00
2.802586e-01 8.000000e-01 0.000000e+00
3.083674e-01 7.457229e-01 0.000000e+00
3.083098e-01 8.000000e-01 0.000000e+00
3.085960e-01 6.995500e-01 0.000000e+00
3.083674e-01 7.457229e-01 0.000000e+00
3.366173e-01 6.998037e-01 0.000000e+00
3.364057e-01 7.458800e-01 0.000000e+00
3.083674e-01 7.457229e-01 0.000000e+00
3.083098e-01 8.000000e-01 0.000000e+00
3.364057e-01 7.458800e-01 0.000000e+00
3.363751e-01 8.000000e-01 0.000000e+00
3.366173e-01 6.998037e-01 0.000000e+00
3.364057e-01 7.458800e-01 0.000000e+00
3.646238e-01 7.000838e-01 0.000000e+00
3.644478e-01 7.460582e-01 0.000000e+00
3.364057e-01 7.458800e-01 0.000000e+00
3.363751e-01 8.000000e-01 0.000000e+00
3.644478e-01 7.460582e-01 0.000000e+00
3.644600e-01 8.000000e-01 0.000000e+00
3.646238e-01 7.000838e-01 0.000000e+00
3.644478e-01 7.460582e-01 0.000000e+00
3.926103e-01 7.003918e-01 0.000000e+00
3.924954e-01 7.462606e-01 0.000000e+00
3.644478e-01 7.460582e-01 0.000000e+00
3.644600e-01 8.000000e-01 0.000000e+00
3.924954e-01 7.462606e-01 0.000000e+00
3.925718e-01 8.000000e-01 0.000000e+00
3.926103e-01 7.003918e-01 0.000000e+00
3.924954e-01 7.462606e-01 0.000000e+00
4.205696e-01 7.007290e-01 0.000000e+00
4.205507e-01 7.464907e-01 0.000000e+00
3.924954e-01 7.462606e-01 0.000000e+00
3.925718e-01 8.000000e-01 0.000000e+00
4.205507e-01 7.464907e-01 0.000000e+00
4.207202e-01 8.000000e-01 0.000000e+00
4.205696e-01 7.007290e-01 0.000000e+00
4.205507e-01 7.464907e-01 0.000000e+00
4.484925e-01 7.010967e-01 0.000000e+00
4.486162e-01 7.467526e-01 0.000000e+00
4.205507e-01 7.464907e-01 0.000000e+00
4.207202e-01 8.000000e-01 0.000000e+00
4.486162e-01 7.467526e-01 0.000000e+00
4.489176e-01 8.000000e-01 0.000000e+00
4.484925e-01 7.010967e-01 0.000000e+00
4.486162e-01 7.467526e-01 0.000000e+00
4.763661e-01 7.014950e-01 0.000000e+00
4.766949e-01 7.470504e-01 0.000000e+00
4.486162e-01 7.467526e-01 0.000000e+00
4.489176e-01 8.000000e-01 0.000000e+00
4.766949e-01 7.470504e-01 0.000000e+00
4.771798e-01 8.000000e-01 0.000000e+00
4.763661e-01 7.014950e-01 0.000000e+00
4.766949e-01 7.470504e-01 0.000000e+00
5.041734e-01 7.019223e-01 0.000000e+00
5.047896e-01 7.473880e-01 0.000000e+00
4.766949e-01 7.470504e-01 0.000000e+00
4.771798e-01 8.000000e-01 0.000000e+00
5.047896e-01 7.473880e-01 0.000000e+00
5.055267e-01 8.000000e-01 0.000000e+00
5.041734e-01 7.019223e-01 0.000000e+00
5.047896e-01 7.473880e-01 0.000000e+00
5.318918e-01 7.023729e-01 0.000000e+00
5.329020e-01 7.477672e-01 0.000000e+00
5.047896e-01 7.473880e-01 0.000000e+00
5.055267e-01 8.000000e-01 0.000000e+00
5.329020e-01 7.477672e-01 0.000000e+00
5.339821e-01 8.000000e-01 0.000000e+00
5.318918e-01 7.023729e-01 0.000000e+00
5.329020e-01 7.477672e-01 0.000000e+00
5.594918e-01 7.028341e-01 0.000000e+00
5.610304e-01 7.481855e-01 0.000000e+00
5.329020e-01 7.477672e-01 0.000000e+00
5.339821e-01 8.000000e-01 0.000000e+00
5.610304e-01 7.481855e-01 0.000000e+00
5.625736e-01 8.000000e-01 0.000000e+00
5.594918e-01 7.028341e-01 0.000000e+00
5.610304e-01 7.481855e-01 0.000000e+00
5.869352e-01 7.032809e-01 0.000000e+00
5.891661e-01 7.486303e-01 0.000000e+00
5.610304e-01 7.481855e-01 0.000000e+00
5.625736e-01 8.000000e-01 0.000000e+00
5.891661e-01 7.486303e-01 0.000000e+00
5.913302e-01 8.000000e-01 0.000000e+00
5.869352e-01 7.032809e-01 0.000000e+00
5.891661e-01 7.486303e-01 0.000000e+00
6.141740e-01 7.036660e-01 0.000000e+00
6.172847e-01 7.490689e-01 0.000000e+00
5.891661e-01 7.486303e-01 0.000000e+00
5.913302e-01 8.000000e-01 0.000000e+00
6.172847e-01 7.490689e-01 0.000000e+00
6.202775e-01 8.000000e-01 0.000000e+00
6.141740e-01 7.036660e-01 0.000000e+00
6.172847e-01 7.490689e-01 0.000000e+00
6.411489e-01 7.039050e-01 0.000000e+00
6.453313e-01 7.494285e-01 0.000000e+00
6.172847e-01 7.490689e-01 0.000000e+00
6.202775e-01 8.000000e-01 0.000000e+00
6.453313e-01 7.494285e-01 0.000000e+00
6.494248e-01 8.000000e-01 0.000000e+00
6.411489e-01 7.039050e-01 0.000000e+00
6.453313e-01 7.494285e-01 0.000000e+00
6.677808e-01 7.038363e-01 0.000000e+00
6.731958e-01 7.495379e-01 0.000000e+00
6.453313e-01 7.494285e-01 0.000000e+00
6.494248e-01 8.000000e-01 0.000000e+00
6.731958e-01 7.495379e-01 0.000000e+00
6.787492e-01 8.000000e-01 0.000000e+00
6.677808e-01 7.038363e-01 0.000000e+00
6.731958e-01 7.495379e-01 0.000000e+00
6.940105e-01 7.032395e-01 0.000000e+00
7.007753e-01 7.491440e-01 0.000000e+00
6.731958e-01 7.495379e-01 0.000000e+00
6.787492e-01 8.000000e-01 0.000000e+00
7.007753e-01 7.491440e-01 0.000000e+00
7.079756e-01 8.000000e-01 0.000000e+00
6.940105e-01 7.032395e-01 0.000000e+00
7.007753e-01 7.491440e-01 0.000000e+00
7.198483e-01 7.016659e-01 0.000000e+00
7.280710e-01 7.475419e-01 0.000000e+00
7.007753e-01 7.491440e-01 0.000000e+00
7.079756e-01 8.000000e-01 0.000000e+00
7.280710e-01 7.475419e-01 0.000000e+00
7.367847e-01 7.981053e-01 0.000000e+00
7.198483e-01 7.016659e-01 0.000000e+00
7.280710e-01 7.475419e-01 0.000000e+00
7.452111e-01 6.988372e-01 0.000000e+00
7.550096e-01 7.444167e-01 0.000000e+00
7.280710e-01 7.475419e-01 0.000000e+00
7.367847e-01 7.981053e-01 0.000000e+00
7.550096e-01 7.444167e-01 0.000000e+00
7.656209e-01 7.940117e-01 0.000000e+00
7.452111e-01 6.988372e-01 0.000000e+00
7.550096e-01 7.444167e-01 0.000000e+00
7.701473e-01 6.945900e-01 0.000000e+00
7.817093e-01 7.396711e-01 0.000000e+00
7.550096e-01 7.444167e-01 0.000000e+00
7.656209e-01 7.940117e-01 0.000000e+00
7.817093e-01 7.396711e-01 0.000000e+00
7.943561e-01 7.882400e-01 0.000000e+00
7.701473e-01 6.945900e-01 0.000000e+00
7.817093e-01 7.396711e-01 0.000000e+00
7.946688e-01 6.889114e-01 0.000000e+00
8.081282e-01 7.333311e-01 0.000000e+00
7.817093e-01 7.396711e-01 0.000000e+00
7.943561e-01 7.882400e-01 0.000000e+00
8.081282e-01 7.333311e-01 0.000000e+00
8.228401e-01 7.808465e-01 0.000000e+00
7.946688e-01 6.889114e-01 0.000000e+00
8.081282e-01 7.333311e-01 0.000000e+00
8.187685e-01 6.818450e-01 0.000000e+00
8.341816e-01 7.254654e-01 0.000000e+00
8.081282e-01 7.333311e-01 0.000000e+00
8.228401e-01 7.808465e-01 0.000000e+00
8.341816e-01 7.254654e-01 0.000000e+00
8.509553e-01 7.718942e-01 0.000000e+00
8.187685e-01 6.818450e-01 0.000000e+00
8.341816e-01 7.254654e-01 0.000000e+00
8.424262e-01 6.734450e-01 0.000000e+00
8.597890e-01 7.161455e-01 0.000000e+00
8.341816e-01 7.254654e-01 0.000000e+00
8.509553e-01 7.718942e-01 0.000000e+00
8.597890e-01 7.161455e-01 0.000000e+00
8.785959e-01 7.614454e-01 0.000000e+00
8.424262e-01 6.734450e-01 0.000000e+00
[...]
<PointData>
<DataArray type="Float32" Name="V1" format="ascii">
1.623667e+01
5.694528e+00
1.624373e+01
5.701594e+00
6.020985e+00
6.338115e-01
6.024825e+00
6.376509e-01
1.624718e+01
5.697731e+00
1.626511e+01
5.715662e+00
6.026827e+00
6.364848e-01
6.036510e+00
6.461678e-01
1.627280e+01
5.708144e+00
1.630283e+01
5.738175e+00
6.040597e+00
6.438924e-01
6.056960e+00
6.602561e-01
1.631419e+01
5.726874e+00
1.635631e+01
5.768998e+00
6.062975e+00
6.567091e-01
6.086064e+00
6.797978e-01
1.637128e+01
5.753976e+00
1.642547e+01
5.808167e+00
6.094033e+00
6.749851e-01
6.123930e+00
7.048816e-01
1.644394e+01
5.789550e+00
1.651015e+01
5.855763e+00
6.133867e+00
6.987997e-01
6.170706e+00
7.356384e-01
1.653192e+01
5.833734e+00
1.661007e+01
5.911881e+00
6.182618e+00
7.282752e-01
6.226590e+00
7.722467e-01
1.663486e+01
5.886717e+00
1.672478e+01
5.976641e+00
6.240470e+00
7.635859e-01
6.291842e+00
8.149573e-01
1.675215e+01
5.948757e+00
1.685358e+01
6.050193e+00
6.307664e+00
8.049842e-01
6.366804e+00
8.641237e-01
1.688288e+01
6.020195e+00
1.699541e+01
6.132726e+00
6.384514e+00
8.528254e-01
6.451931e+00
9.202422e-01
1.702571e+01
6.101502e+00
1.714870e+01
6.224486e+00
6.471428e+00
9.076144e-01
6.547829e+00
9.840155e-01
1.717865e+01
6.193316e+00
1.731114e+01
6.325807e+00
6.568944e+00
9.700665e-01
6.655316e+00
1.056439e+00
1.733882e+01
6.296524e+00
1.747946e+01
6.437160e+00
6.677777e+00
1.041205e+00
6.775506e+00
1.138934e+00
1.750218e+01
6.412357e+00
1.764905e+01
6.559221e+00
6.798885e+00
1.122494e+00
6.909920e+00
1.233530e+00
1.766306e+01
6.542534e+00
1.781351e+01
6.692978e+00
6.933555e+00
1.216036e+00
7.060657e+00
1.343138e+00
1.781368e+01
6.689447e+00
1.796412e+01
6.839889e+00
7.083521e+00
1.324874e+00
7.230607e+00
1.471960e+00
1.794357e+01
6.856400e+00
1.808926e+01
7.002088e+00
7.251096e+00
1.453448e+00
7.423751e+00
1.626103e+00
1.803892e+01
7.047888e+00
1.817371e+01
7.182669e+00
7.439306e+00
1.608320e+00
7.645544e+00
1.814558e+00
1.808209e+01
7.269866e+00
1.819826e+01
7.386037e+00
7.651977e+00
1.799360e+00
7.903396e+00
2.050779e+00
1.805141e+01
7.529923e+00
1.813984e+01
7.618353e+00
7.893615e+00
2.041805e+00
8.207233e+00
2.355423e+00
1.792192e+01
7.837207e+00
1.797286e+01
7.888147e+00
8.168810e+00
2.359951e+00
8.570068e+00
2.761209e+00
1.766796e+01
8.201856e+00
1.767344e+01
8.207333e+00
8.480492e+00
2.794043e+00
9.008382e+00
3.321933e+00
1.726830e+01
8.635396e+00
1.722719e+01
8.594280e+00
8.825099e+00
3.414598e+00
9.539681e+00
4.129181e+00
1.672238e+01
9.147262e+00
1.664663e+01
9.071512e+00
9.180658e+00
4.344341e+00
1.018063e+01
5.344310e+00
1.602364e+01
9.782154e+00
1.597233e+01
9.730850e+00
9.362556e+00
5.949449e+00
1.074726e+01
7.334150e+00
1.531240e+01
1.055544e+01
1.526624e+01
1.050928e+01
9.768723e+00
8.246469e+00
1.077292e+01
9.250663e+00
1.479166e+01
1.102632e+01
1.480322e+01
1.103787e+01
1.055412e+01
9.279946e+00
1.111518e+01
9.841011e+00
1.447916e+01
1.137096e+01
1.455803e+01
1.144984e+01
1.102190e+01
9.880805e+00
1.148209e+01
1.034100e+01
1.436437e+01
1.165362e+01
1.451033e+01
1.179958e+01
1.140192e+01
1.038442e+01
1.180184e+01
1.078434e+01
1.440376e+01
1.191662e+01
1.460806e+01
1.212091e+01
1.175069e+01
1.081439e+01
1.210753e+01
1.117122e+01
1.455632e+01
1.217913e+01
1.480400e+01
1.242681e+01
1.208272e+01
1.118554e+01
1.240434e+01
1.150715e+01
1.478922e+01
1.244354e+01
1.506683e+01
1.272115e+01
1.240254e+01
1.150658e+01
1.269420e+01
1.179824e+01
1.507799e+01
1.270806e+01
1.537467e+01
1.300475e+01
1.271075e+01
1.178538e+01
1.297650e+01
1.205113e+01
1.540457e+01
1.296994e+01
1.571189e+01
1.327725e+01
1.300695e+01
1.202892e+01
1.325007e+01
1.227205e+01
1.575542e+01
1.322669e+01
1.606686e+01
1.353813e+01
1.329052e+01
1.224314e+01
1.351373e+01
1.246636e+01
1.612023e+01
1.347633e+01
1.643082e+01
1.378692e+01
1.356102e+01
1.243296e+01
1.376658e+01
1.263852e+01
1.649106e+01
1.371738e+01
1.679703e+01
1.402335e+01
1.381823e+01
1.260237e+01
1.400800e+01
1.279215e+01
1.686182e+01
1.394884e+01
1.716034e+01
1.424736e+01
1.406209e+01
1.275457e+01
1.423766e+01
1.293014e+01
1.722783e+01
1.417004e+01
1.751681e+01
1.445902e+01
1.429274e+01
1.289212e+01
1.445542e+01
1.305480e+01
1.758553e+01
1.438058e+01
1.786347e+01
1.465851e+01
1.451039e+01
1.301708e+01
1.466130e+01
1.316800e+01
1.793225e+01
1.458029e+01
1.819809e+01
1.484613e+01
1.471536e+01
1.313109e+01
1.485546e+01
1.327119e+01
1.826602e+01
1.476914e+01
1.851907e+01
1.502218e+01
1.490801e+01
1.323549e+01
1.503811e+01
1.336559e+01
1.858543e+01
1.494721e+01
1.882526e+01
1.518704e+01
1.508873e+01
1.333134e+01
1.520954e+01
1.345215e+01
1.888950e+01
1.511468e+01
1.911589e+01
1.534107e+01
1.525794e+01
1.341953e+01
1.537006e+01
1.353165e+01
1.917760e+01
1.527177e+01
1.939049e+01
1.548466e+01
1.541604e+01
1.350077e+01
1.552000e+01
1.360474e+01
1.944936e+01
1.541873e+01
1.964882e+01
1.561819e+01
1.556343e+01
1.357566e+01
1.565971e+01
1.367194e+01
1.970462e+01
1.555583e+01
1.989079e+01
1.574201e+01
1.570052e+01
1.364470e+01
1.578953e+01
1.373371e+01
1.994338e+01
1.568338e+01
2.011646e+01
1.585647e+01
1.582768e+01
1.370830e+01
1.590977e+01
1.379040e+01
2.016572e+01
1.580166e+01
2.032597e+01
1.596190e+01
1.594527e+01
1.376682e+01
1.602078e+01
1.384233e+01
2.037184e+01
1.591095e+01
2.051951e+01
1.605862e+01
1.605363e+01
1.382055e+01
1.612285e+01
1.388976e+01
2.056197e+01
1.601153e+01
2.069735e+01
1.614691e+01
1.615309e+01
1.386974e+01
1.621626e+01
1.393291e+01
2.073639e+01
1.610368e+01
2.085975e+01
1.622704e+01
1.624394e+01
1.391462e+01
1.630129e+01
1.397197e+01
2.089538e+01
1.618764e+01
2.100700e+01
1.629925e+01
1.632644e+01
1.395537e+01
1.637818e+01
1.400711e+01
2.103925e+01
1.626364e+01
2.113938e+01
1.636377e+01
1.640086e+01
1.399217e+01
1.644717e+01
1.403847e+01
2.116827e+01
1.633190e+01
2.125717e+01
1.642080e+01
1.646742e+01
1.402514e+01
1.650845e+01
1.406617e+01
2.128273e+01
1.639262e+01
2.136062e+01
1.647050e+01
1.652632e+01
1.405441e+01
1.656221e+01
1.409030e+01
2.138290e+01
1.644597e+01
2.144998e+01
1.651305e+01
1.657775e+01
1.408009e+01
1.660862e+01
1.411096e+01
2.146900e+01
1.649211e+01
2.152545e+01
1.654856e+01
1.662186e+01
1.410227e+01
1.664781e+01
1.412822e+01
2.154124e+01
1.653119e+01
2.158722e+01
1.657716e+01
1.665879e+01
1.412102e+01
1.667991e+01
1.414214e+01
2.159982e+01
1.656331e+01
2.163545e+01
1.659893e+01
1.668865e+01
1.413640e+01
1.670501e+01
1.415276e+01
2.164488e+01
1.658857e+01
2.167025e+01
1.661394e+01
1.671155e+01
1.414847e+01
1.672319e+01
1.416011e+01
2.167653e+01
1.660705e+01
2.169173e+01
1.662224e+01
1.672754e+01
1.415726e+01
1.673452e+01
1.416424e+01
2.169486e+01
1.661880e+01
2.169992e+01
1.662386e+01
1.673669e+01
1.416281e+01
1.673901e+01
1.416514e+01
</DataArray>
<DataArray type="Float32" Name="V2" format="ascii">
6.982613e-01
7.449752e-01
6.987555e-01
7.454485e-01
7.449752e-01
8.000000e-01
7.454485e-01
8.004499e-01
6.987555e-01
7.454485e-01
7.002337e-01
7.468672e-01
7.454485e-01
8.004499e-01
7.468672e-01
8.017989e-01
7.002337e-01
7.468672e-01
7.026949e-01
7.492293e-01
7.468672e-01
8.017989e-01
7.492293e-01
8.040449e-01
7.026949e-01
7.492293e-01
7.061353e-01
7.525311e-01
7.492293e-01
8.040449e-01
7.525311e-01
8.071844e-01
7.061353e-01
7.525311e-01
7.105492e-01
7.567677e-01
7.525311e-01
8.071844e-01
7.567677e-01
8.112125e-01
7.105492e-01
7.567677e-01
7.159299e-01
7.619328e-01
7.567677e-01
8.112125e-01
7.619328e-01
8.161229e-01
7.159299e-01
7.619328e-01
7.222689e-01
7.680184e-01
7.619328e-01
8.161229e-01
7.680184e-01
8.219080e-01
7.222689e-01
7.680184e-01
7.295561e-01
7.750157e-01
7.680184e-01
8.219080e-01
7.750157e-01
8.285591e-01
7.295561e-01
7.750157e-01
7.377800e-01
7.829143e-01
7.750157e-01
8.285591e-01
7.829143e-01
8.360660e-01
7.377800e-01
7.829143e-01
7.469276e-01
7.917030e-01
7.829143e-01
8.360660e-01
7.917030e-01
8.444177e-01
7.469276e-01
7.917030e-01
7.569841e-01
8.013693e-01
7.917030e-01
8.444177e-01
8.013693e-01
8.536022e-01
7.569841e-01
8.013693e-01
7.679331e-01
8.118999e-01
8.013693e-01
8.536022e-01
8.118999e-01
8.636065e-01
7.679331e-01
8.118999e-01
7.797564e-01
8.232807e-01
8.118999e-01
8.636065e-01
8.232807e-01
8.744175e-01
7.797564e-01
8.232807e-01
7.924336e-01
8.354969e-01
8.232807e-01
8.744175e-01
8.354969e-01
8.860216e-01
7.924336e-01
8.354969e-01
8.059416e-01
8.485330e-01
8.354969e-01
8.860216e-01
8.485330e-01
8.984053e-01
8.059416e-01
8.485330e-01
8.202540e-01
8.623729e-01
8.485330e-01
8.984053e-01
8.623729e-01
9.115562e-01
8.202540e-01
8.623729e-01
8.353401e-01
8.769993e-01
8.623729e-01
9.115562e-01
8.769993e-01
9.254626e-01
8.353401e-01
8.769993e-01
8.511628e-01
8.923933e-01
8.769993e-01
9.254626e-01
8.923933e-01
9.401149e-01
8.511628e-01
8.923933e-01
8.676765e-01
9.085325e-01
8.923933e-01
9.401149e-01
9.085325e-01
9.555058e-01
8.676765e-01
9.085325e-01
8.848232e-01
9.253877e-01
9.085325e-01
9.555058e-01
9.253877e-01
9.716303e-01
8.848232e-01
9.253877e-01
9.025267e-01
9.429159e-01
9.253877e-01
9.716303e-01
9.429159e-01
9.884854e-01
9.025267e-01
9.429159e-01
9.206837e-01
9.610476e-01
9.429159e-01
9.884854e-01
9.610476e-01
1.006067e+00
9.206837e-01
9.610476e-01
9.391514e-01
9.796615e-01
9.610476e-01
1.006067e+00
9.796615e-01
1.024364e+00
9.391514e-01
9.796615e-01
9.577112e-01
9.985220e-01
9.796615e-01
1.024364e+00
9.985220e-01
1.043344e+00
9.577112e-01
9.985220e-01
9.761112e-01
1.017332e+00
9.985220e-01
1.043344e+00
1.017332e+00
1.062827e+00
9.761112e-01
1.017332e+00
9.939683e-01
1.035502e+00
1.017332e+00
1.062827e+00
1.035502e+00
1.081070e+00
9.939683e-01
1.035502e+00
1.011004e+00
1.052749e+00
1.035502e+00
1.081070e+00
1.052749e+00
1.098140e+00
1.011004e+00
1.052749e+00
1.027128e+00
1.069094e+00
1.052749e+00
1.098140e+00
1.069094e+00
1.114429e+00
1.027128e+00
1.069094e+00
1.042354e+00
1.084565e+00
1.069094e+00
1.114429e+00
1.084565e+00
1.129926e+00
1.042354e+00
1.084565e+00
1.056732e+00
1.099191e+00
1.084565e+00
1.129926e+00
1.099191e+00
1.144635e+00
1.056732e+00
1.099191e+00
1.070310e+00
1.113001e+00
1.099191e+00
1.144635e+00
1.113001e+00
1.158562e+00
1.070310e+00
1.113001e+00
1.083133e+00
1.126028e+00
1.113001e+00
1.158562e+00
1.126028e+00
1.171720e+00
1.083133e+00
1.126028e+00
1.095242e+00
1.138307e+00
1.126028e+00
1.171720e+00
1.138307e+00
1.184133e+00
1.095242e+00
1.138307e+00
1.106674e+00
1.149877e+00
1.138307e+00
1.184133e+00
1.149877e+00
1.195830e+00
1.106674e+00
1.149877e+00
1.117464e+00
1.160773e+00
1.149877e+00
1.195830e+00
1.160773e+00
1.206842e+00
1.117464e+00
1.160773e+00
1.127644e+00
1.171032e+00
1.160773e+00
1.206842e+00
1.171032e+00
1.217203e+00
1.127644e+00
1.171032e+00
1.137244e+00
1.180687e+00
1.171032e+00
1.217203e+00
1.180687e+00
1.226945e+00
1.137244e+00
1.180687e+00
1.146293e+00
1.189771e+00
1.180687e+00
1.226945e+00
1.189771e+00
1.236101e+00
1.146293e+00
1.189771e+00
1.154816e+00
1.198312e+00
1.189771e+00
1.236101e+00
1.198312e+00
1.244701e+00
1.154816e+00
1.198312e+00
1.162839e+00
1.206338e+00
1.198312e+00
1.244701e+00
1.206338e+00
1.252774e+00
1.162839e+00
1.206338e+00
1.170384e+00
1.213875e+00
1.206338e+00
1.252774e+00
1.213875e+00
1.260347e+00
1.170384e+00
1.213875e+00
1.177472e+00
1.220946e+00
1.213875e+00
1.260347e+00
1.220946e+00
1.267444e+00
1.177472e+00
1.220946e+00
1.184123e+00
1.227573e+00
1.220946e+00
1.267444e+00
1.227573e+00
1.274089e+00
1.184123e+00
1.227573e+00
1.190353e+00
1.233776e+00
1.227573e+00
1.274089e+00
1.233776e+00
1.280302e+00
1.190353e+00
1.233776e+00
1.196181e+00
1.239571e+00
1.233776e+00
1.280302e+00
1.239571e+00
1.286103e+00
1.196181e+00
1.239571e+00
1.201620e+00
1.244976e+00
1.239571e+00
1.286103e+00
1.244976e+00
1.291508e+00
1.201620e+00
1.244976e+00
1.206685e+00
1.250005e+00
1.244976e+00
1.291508e+00
1.250005e+00
1.296534e+00
1.206685e+00
1.250005e+00
1.211387e+00
1.254671e+00
1.250005e+00
1.296534e+00
1.254671e+00
1.301194e+00
1.211387e+00
1.254671e+00
1.215739e+00
1.258987e+00
1.254671e+00
1.301194e+00
1.258987e+00
1.305502e+00
1.215739e+00
1.258987e+00
1.219750e+00
1.262963e+00
1.258987e+00
1.305502e+00
1.262963e+00
1.309469e+00
1.219750e+00
1.262963e+00
1.223431e+00
1.266610e+00
1.262963e+00
1.309469e+00
1.266610e+00
1.313105e+00
1.223431e+00
1.266610e+00
1.226788e+00
1.269935e+00
1.266610e+00
1.313105e+00
1.269935e+00
1.316419e+00
1.226788e+00
1.269935e+00
1.229830e+00
1.272947e+00
1.269935e+00
1.316419e+00
1.272947e+00
1.319420e+00
1.229830e+00
1.272947e+00
1.232564e+00
1.275653e+00
1.272947e+00
1.319420e+00
1.275653e+00
1.322115e+00
1.232564e+00
1.275653e+00
1.234995e+00
1.278059e+00
1.275653e+00
1.322115e+00
1.278059e+00
1.324510e+00
1.234995e+00
1.278059e+00
1.237128e+00
1.280169e+00
1.278059e+00
1.324510e+00
1.280169e+00
1.326611e+00
1.237128e+00
1.280169e+00
1.238968e+00
1.281990e+00
1.280169e+00
1.326611e+00
1.281990e+00
1.328422e+00
1.238968e+00
1.281990e+00
1.240519e+00
1.283523e+00
1.281990e+00
1.328422e+00
1.283523e+00
1.329948e+00
1.240519e+00
1.283523e+00
1.241783e+00
1.284774e+00
1.283523e+00
1.329948e+00
1.284774e+00
1.331192e+00
1.241783e+00
1.284774e+00
1.242764e+00
1.285744e+00
1.284774e+00
1.331192e+00
1.285744e+00
1.332157e+00
1.242764e+00
1.285744e+00
1.243463e+00
1.286435e+00
1.285744e+00
1.332157e+00
1.286435e+00
1.332845e+00
1.243463e+00
1.286435e+00
1.243882e+00
1.286850e+00
1.286435e+00
1.332845e+00
1.286850e+00
1.333257e+00
1.243882e+00
1.286850e+00
1.244022e+00
1.286988e+00
1.286850e+00
1.333257e+00
1.286988e+00
1.333394e+00
</DataArray>
<DataArray type="Float32" Name="V3" format="ascii">
0.000000e+00
0.000000e+00
1.064622e-02
9.451745e-03
0.000000e+00
0.000000e+00
9.451745e-03
8.066943e-03
1.064622e-02
9.451745e-03
2.124916e-02
1.886183e-02
9.451745e-03
8.066943e-03
1.886183e-02
1.609416e-02
2.124916e-02
1.886183e-02
3.176536e-02
2.818867e-02
1.886183e-02
1.609416e-02
2.818867e-02
2.404207e-02
3.176536e-02
2.818867e-02
4.215155e-02
3.739075e-02
2.818867e-02
2.404207e-02
3.739075e-02
3.187120e-02
4.215155e-02
3.739075e-02
5.236452e-02
4.642673e-02
3.739075e-02
3.187120e-02
4.642673e-02
3.954233e-02
5.236452e-02
4.642673e-02
6.236116e-02
5.525544e-02
4.642673e-02
3.954233e-02
5.525544e-02
4.701660e-02
6.236116e-02
5.525544e-02
7.209844e-02
6.383600e-02
5.525544e-02
4.701660e-02
6.383600e-02
5.425559e-02
7.209844e-02
6.383600e-02
8.153344e-02
7.212779e-02
6.383600e-02
5.425559e-02
7.212779e-02
6.122145e-02
8.153344e-02
7.212779e-02
9.062324e-02
8.009056e-02
7.212779e-02
6.122145e-02
8.009056e-02
6.787709e-02
9.062324e-02
8.009056e-02
9.932494e-02
8.768443e-02
8.009056e-02
6.787709e-02
8.768443e-02
7.418632e-02
9.932494e-02
8.768443e-02
1.075955e-01
9.486995e-02
8.768443e-02
7.418632e-02
9.486995e-02
8.011409e-02
1.075955e-01
9.486995e-02
1.153916e-01
1.016081e-01
9.486995e-02
8.011409e-02
1.016081e-01
8.562673e-02
1.153916e-01
1.016081e-01
1.226696e-01
1.078604e-01
1.016081e-01
8.562673e-02
1.078604e-01
9.069225e-02
1.226696e-01
1.078604e-01
1.293849e-01
1.135889e-01
1.078604e-01
9.069225e-02
1.135889e-01
9.528071e-02
1.293849e-01
1.135889e-01
1.354922e-01
1.187559e-01
1.135889e-01
9.528071e-02
1.187559e-01
9.936456e-02
1.354922e-01
1.187559e-01
1.409448e-01
1.233245e-01
1.187559e-01
9.936456e-02
1.233245e-01
1.029190e-01
1.409448e-01
1.233245e-01
1.456947e-01
1.272580e-01
1.233245e-01
1.029190e-01
1.272580e-01
1.059225e-01
1.456947e-01
1.272580e-01
1.496919e-01
1.305202e-01
1.272580e-01
1.059225e-01
1.305202e-01
1.083568e-01
1.496919e-01
1.305202e-01
1.528856e-01
1.330751e-01
1.305202e-01
1.083568e-01
1.330751e-01
1.102071e-01
1.528856e-01
1.330751e-01
1.552245e-01
1.348863e-01
1.330751e-01
1.102071e-01
1.348863e-01
1.114611e-01
1.552245e-01
1.348863e-01
1.566603e-01
1.359177e-01
1.348863e-01
1.114611e-01
1.359177e-01
1.121070e-01
1.566603e-01
1.359177e-01
1.571529e-01
1.361325e-01
1.359177e-01
1.121070e-01
1.361325e-01
1.121290e-01
1.571529e-01
1.361325e-01
1.566807e-01
1.354954e-01
1.361325e-01
1.121290e-01
1.354954e-01
1.114966e-01
1.566807e-01
1.354954e-01
1.552613e-01
1.339908e-01
1.354954e-01
1.114966e-01
1.339908e-01
1.101529e-01
1.552613e-01
1.339908e-01
1.529819e-01
1.316780e-01
1.339908e-01
1.101529e-01
1.316780e-01
1.078374e-01
1.529819e-01
1.316780e-01
1.501455e-01
1.290000e-01
1.316780e-01
1.078374e-01
1.290000e-01
1.054155e-01
1.501455e-01
1.290000e-01
1.469116e-01
1.261541e-01
1.290000e-01
1.054155e-01
1.261541e-01
1.035283e-01
1.469116e-01
1.261541e-01
1.434932e-01
1.233727e-01
1.261541e-01
1.035283e-01
1.233727e-01
1.018412e-01
1.434932e-01
1.233727e-01
1.399848e-01
1.206845e-01
1.233727e-01
1.018412e-01
1.206845e-01
1.002749e-01
1.399848e-01
1.206845e-01
1.364275e-01
1.180567e-01
1.206845e-01
1.002749e-01
1.180567e-01
9.877294e-02
1.364275e-01
1.180567e-01
1.328409e-01
1.154553e-01
1.180567e-01
9.877294e-02
1.154553e-01
9.728852e-02
1.328409e-01
1.154553e-01
1.292332e-01
1.128518e-01
1.154553e-01
9.728852e-02
1.128518e-01
9.578213e-02
1.292332e-01
1.128518e-01
1.256063e-01
1.102235e-01
1.128518e-01
9.578213e-02
1.102235e-01
9.422135e-02
1.256063e-01
1.102235e-01
1.219589e-01
1.075528e-01
1.102235e-01
9.422135e-02
1.075528e-01
9.258065e-02
1.219589e-01
1.075528e-01
1.182881e-01
1.048258e-01
1.075528e-01
9.258065e-02
1.048258e-01
9.084068e-02
1.182881e-01
1.048258e-01
1.145899e-01
1.020320e-01
1.048258e-01
9.084068e-02
1.020320e-01
8.898746e-02
1.145899e-01
1.020320e-01
1.108604e-01
9.916358e-02
1.020320e-01
8.898746e-02
9.916358e-02
8.701146e-02
1.108604e-01
9.916358e-02
1.070958e-01
9.621493e-02
9.916358e-02
8.701146e-02
9.621493e-02
8.490680e-02
1.070958e-01
9.621493e-02
1.032924e-01
9.318239e-02
9.621493e-02
8.490680e-02
9.318239e-02
8.267054e-02
1.032924e-01
9.318239e-02
9.944742e-02
9.006386e-02
9.318239e-02
8.267054e-02
9.006386e-02
8.030206e-02
9.944742e-02
9.006386e-02
9.555849e-02
8.685854e-02
9.006386e-02
8.030206e-02
8.685854e-02
7.780257e-02
9.555849e-02
8.685854e-02
9.162387e-02
8.356673e-02
8.685854e-02
7.780257e-02
8.356673e-02
7.517468e-02
9.162387e-02
8.356673e-02
8.764243e-02
8.018960e-02
8.356673e-02
7.517468e-02
8.018960e-02
7.242211e-02
8.764243e-02
8.018960e-02
8.361358e-02
7.672905e-02
8.018960e-02
7.242211e-02
7.672905e-02
6.954936e-02
8.361358e-02
7.672905e-02
7.953729e-02
7.318756e-02
7.672905e-02
6.954936e-02
7.318756e-02
6.656154e-02
7.953729e-02
7.318756e-02
7.541398e-02
6.956809e-02
7.318756e-02
6.656154e-02
6.956809e-02
6.346419e-02
7.541398e-02
6.956809e-02
7.124452e-02
6.587395e-02
6.956809e-02
6.346419e-02
6.587395e-02
6.026318e-02
7.124452e-02
6.587395e-02
6.703013e-02
6.210878e-02
6.587395e-02
6.026318e-02
6.210878e-02
5.696456e-02
6.703013e-02
6.210878e-02
6.277240e-02
5.827646e-02
6.210878e-02
5.696456e-02
5.827646e-02
5.357453e-02
6.277240e-02
5.827646e-02
5.847319e-02
5.438102e-02
5.827646e-02
5.357453e-02
5.438102e-02
5.009935e-02
5.847319e-02
5.438102e-02
5.413462e-02
5.042667e-02
5.438102e-02
5.009935e-02
5.042667e-02
4.654531e-02
5.413462e-02
5.042667e-02
4.975904e-02
4.641770e-02
5.042667e-02
4.654531e-02
4.641770e-02
4.291870e-02
4.975904e-02
4.641770e-02
4.534899e-02
4.235852e-02
4.641770e-02
4.291870e-02
4.235852e-02
3.922580e-02
4.534899e-02
4.235852e-02
4.090716e-02
3.825357e-02
4.235852e-02
3.922580e-02
3.825357e-02
3.547285e-02
4.090716e-02
3.825357e-02
3.643639e-02
3.410736e-02
3.825357e-02
3.547285e-02
3.410736e-02
3.166603e-02
3.643639e-02
3.410736e-02
3.193964e-02
2.992443e-02
3.410736e-02
3.166603e-02
2.992443e-02
2.781150e-02
3.193964e-02
2.992443e-02
2.741996e-02
2.570932e-02
2.992443e-02
2.781150e-02
2.570932e-02
2.391533e-02
2.741996e-02
2.570932e-02
2.288049e-02
2.146662e-02
2.570932e-02
2.391533e-02
2.146662e-02
1.998358e-02
2.288049e-02
2.146662e-02
1.832443e-02
1.720091e-02
2.146662e-02
1.998358e-02
1.720091e-02
1.602225e-02
1.832443e-02
1.720091e-02
1.375504e-02
1.291680e-02
1.720091e-02
1.602225e-02
1.291680e-02
1.203731e-02
1.375504e-02
1.291680e-02
9.175619e-03
8.618873e-03
1.291680e-02
1.203731e-02
8.618873e-03
8.034685e-03
9.175619e-03
8.618873e-03
4.589489e-03
4.311739e-03
8.618873e-03
8.034685e-03
4.311739e-03
4.020284e-03
4.589489e-03
4.311739e-03
0.000000e+00
0.000000e+00
4.311739e-03
4.020284e-03
0.000000e+00
0.000000e+00
</DataArray>
<DataArray type="Float32" Name="V4" format="ascii">
8.500000e-01
9.250000e-01
8.500000e-01
9.250000e-01
9.250000e-01
1.000000e+00