<?xml version="1.0"?>
<VTKFile type="UnstructuredGrid" version="0.1" byte_order="LittleEndian" compressor="vtkZLibDataCompressor">
<UnstructuredGrid>
<Piece NumberOfPoints="504" NumberOfCells="126">
<Points>
<DataArray type="Float32" NumberOfComponents="3" format="ascii">
0.000000e+00 8.522742e-01 0.000000e+00
0.000000e+00 9.018305e-01 0.000000e+00
2.723581e-02 8.522911e-01 0.000000e+00
2.724181e-02 9.018429e-01 0.000000e+00
0.000000e+00 9.018305e-01 0.000000e+00
0.000000e+00 9.600000e-01 0.000000e+00
2.724181e-02 9.018429e-01 0.000000e+00
2.726565e-02 9.600000e-01 0.000000e+00
2.723581e-02 8.522911e-01 0.000000e+00
2.724181e-02 9.018429e-01 0.000000e+00
5.446848e-02 8.523386e-01 0.000000e+00
5.448535e-02 9.018801e-01 0.000000e+00
2.724181e-02 9.018429e-01 0.000000e+00
2.726565e-02 9.600000e-01 0.000000e+00
5.448535e-02 9.018801e-01 0.000000e+00
5.453716e-02 9.600000e-01 0.000000e+00
5.446848e-02 8.523386e-01 0.000000e+00
5.448535e-02 9.018801e-01 0.000000e+00
8.169425e-02 8.524186e-01 0.000000e+00
8.173251e-02 9.019436e-01 0.000000e+00
5.448535e-02 9.018801e-01 0.000000e+00
5.453716e-02 9.600000e-01 0.000000e+00
8.173251e-02 9.019436e-01 0.000000e+00
8.182092e-02 9.600000e-01 0.000000e+00
8.169425e-02 8.524186e-01 0.000000e+00
8.173251e-02 9.019436e-01 0.000000e+00
1.089087e-01 8.525319e-01 0.000000e+00
1.089854e-01 9.020353e-01 0.000000e+00
8.173251e-02 9.019436e-01 0.000000e+00
8.182092e-02 9.600000e-01 0.000000e+00
1.089854e-01 9.020353e-01 0.000000e+00
1.091242e-01 9.600000e-01 0.000000e+00
1.089087e-01 8.525319e-01 0.000000e+00
1.089854e-01 9.020353e-01 0.000000e+00
1.361062e-01 8.526796e-01 0.000000e+00
1.362462e-01 9.021581e-01 0.000000e+00
1.089854e-01 9.020353e-01 0.000000e+00
1.091242e-01 9.600000e-01 0.000000e+00
1.362462e-01 9.021581e-01 0.000000e+00
1.364559e-01 9.600000e-01 0.000000e+00
1.361062e-01 8.526796e-01 0.000000e+00
1.362462e-01 9.021581e-01 0.000000e+00
1.632791e-01 8.528626e-01 0.000000e+00
1.635178e-01 9.023153e-01 0.000000e+00
1.362462e-01 9.021581e-01 0.000000e+00
1.364559e-01 9.600000e-01 0.000000e+00
1.635178e-01 9.023153e-01 0.000000e+00
1.638264e-01 9.600000e-01 0.000000e+00
1.632791e-01 8.528626e-01 0.000000e+00
1.635178e-01 9.023153e-01 0.000000e+00
1.904171e-01 8.530810e-01 0.000000e+00
1.908030e-01 9.025108e-01 0.000000e+00
1.635178e-01 9.023153e-01 0.000000e+00
1.638264e-01 9.600000e-01 0.000000e+00
1.908030e-01 9.025108e-01 0.000000e+00
1.912490e-01 9.600000e-01 0.000000e+00
1.904171e-01 8.530810e-01 0.000000e+00
1.908030e-01 9.025108e-01 0.000000e+00
2.175065e-01 8.533334e-01 0.000000e+00
2.181047e-01 9.027480e-01 0.000000e+00
1.908030e-01 9.025108e-01 0.000000e+00
1.912490e-01 9.600000e-01 0.000000e+00
2.181047e-01 9.027480e-01 0.000000e+00
2.187394e-01 9.600000e-01 0.000000e+00
2.175065e-01 8.533334e-01 0.000000e+00
2.181047e-01 9.027480e-01 0.000000e+00
2.445291e-01 8.536150e-01 0.000000e+00
2.454251e-01 9.030290e-01 0.000000e+00
2.181047e-01 9.027480e-01 0.000000e+00
2.187394e-01 9.600000e-01 0.000000e+00
2.454251e-01 9.030290e-01 0.000000e+00
2.463164e-01 9.600000e-01 0.000000e+00
2.445291e-01 8.536150e-01 0.000000e+00
2.454251e-01 9.030290e-01 0.000000e+00
2.714610e-01 8.539151e-01 0.000000e+00
2.727642e-01 9.033523e-01 0.000000e+00
2.454251e-01 9.030290e-01 0.000000e+00
2.463164e-01 9.600000e-01 0.000000e+00
2.727642e-01 9.033523e-01 0.000000e+00
2.740013e-01 9.600000e-01 0.000000e+00
2.714610e-01 8.539151e-01 0.000000e+00
2.727642e-01 9.033523e-01 0.000000e+00
2.982714e-01 8.542133e-01 0.000000e+00
3.001171e-01 9.037095e-01 0.000000e+00
2.727642e-01 9.033523e-01 0.000000e+00
2.740013e-01 9.600000e-01 0.000000e+00
3.001171e-01 9.037095e-01 0.000000e+00
3.018166e-01 9.600000e-01 0.000000e+00
2.982714e-01 8.542133e-01 0.000000e+00
3.001171e-01 9.037095e-01 0.000000e+00
3.249222e-01 8.544732e-01 0.000000e+00
3.274688e-01 9.040783e-01 0.000000e+00
3.001171e-01 9.037095e-01 0.000000e+00
3.018166e-01 9.600000e-01 0.000000e+00
3.274688e-01 9.040783e-01 0.000000e+00
3.297831e-01 9.600000e-01 0.000000e+00
3.249222e-01 8.544732e-01 0.000000e+00
3.274688e-01 9.040783e-01 0.000000e+00
3.513676e-01 8.546317e-01 0.000000e+00
3.547849e-01 9.044106e-01 0.000000e+00
3.274688e-01 9.040783e-01 0.000000e+00
3.297831e-01 9.600000e-01 0.000000e+00
3.547849e-01 9.044106e-01 0.000000e+00
3.579143e-01 9.600000e-01 0.000000e+00
3.513676e-01 8.546317e-01 0.000000e+00
3.547849e-01 9.044106e-01 0.000000e+00
3.775547e-01 8.545869e-01 0.000000e+00
3.819952e-01 9.046089e-01 0.000000e+00
3.547849e-01 9.044106e-01 0.000000e+00
3.579143e-01 9.600000e-01 0.000000e+00
3.819952e-01 9.046089e-01 0.000000e+00
3.862072e-01 9.600000e-01 0.000000e+00
3.775547e-01 8.545869e-01 0.000000e+00
3.819952e-01 9.046089e-01 0.000000e+00
4.034165e-01 8.541653e-01 0.000000e+00
4.089888e-01 9.044671e-01 0.000000e+00
3.819952e-01 9.046089e-01 0.000000e+00
3.862072e-01 9.600000e-01 0.000000e+00
4.089888e-01 9.044671e-01 0.000000e+00
4.146179e-01 9.600000e-01 0.000000e+00
4.034165e-01 8.541653e-01 0.000000e+00
4.089888e-01 9.044671e-01 0.000000e+00
4.289649e-01 8.531668e-01 0.000000e+00
4.357853e-01 9.037158e-01 0.000000e+00
4.089888e-01 9.044671e-01 0.000000e+00
4.146179e-01 9.600000e-01 0.000000e+00
4.357853e-01 9.037158e-01 0.000000e+00
4.428016e-01 9.596325e-01 0.000000e+00
4.289649e-01 8.531668e-01 0.000000e+00
4.357853e-01 9.037158e-01 0.000000e+00
4.541694e-01 8.512728e-01 0.000000e+00
4.623281e-01 9.018207e-01 0.000000e+00
4.357853e-01 9.037158e-01 0.000000e+00
4.428016e-01 9.596325e-01 0.000000e+00
4.623281e-01 9.018207e-01 0.000000e+00
4.708834e-01 9.571754e-01 0.000000e+00
4.541694e-01 8.512728e-01 0.000000e+00
4.623281e-01 9.018207e-01 0.000000e+00
4.790335e-01 8.483767e-01 0.000000e+00
4.886693e-01 8.987385e-01 0.000000e+00
4.623281e-01 9.018207e-01 0.000000e+00
4.708834e-01 9.571754e-01 0.000000e+00
4.886693e-01 8.987385e-01 0.000000e+00
4.990243e-01 9.533160e-01 0.000000e+00
4.790335e-01 8.483767e-01 0.000000e+00
4.886693e-01 8.987385e-01 0.000000e+00
5.036058e-01 8.443796e-01 0.000000e+00
5.148666e-01 8.943901e-01 0.000000e+00
4.886693e-01 8.987385e-01 0.000000e+00
4.990243e-01 9.533160e-01 0.000000e+00
5.148666e-01 8.943901e-01 0.000000e+00
5.270848e-01 9.481588e-01 0.000000e+00
5.036058e-01 8.443796e-01 0.000000e+00
5.148666e-01 8.943901e-01 0.000000e+00
5.279006e-01 8.392898e-01 0.000000e+00
5.408877e-01 8.888213e-01 0.000000e+00
5.148666e-01 8.943901e-01 0.000000e+00
5.270848e-01 9.481588e-01 0.000000e+00
5.408877e-01 8.888213e-01 0.000000e+00
5.549867e-01 9.417681e-01 0.000000e+00
5.279006e-01 8.392898e-01 0.000000e+00
5.408877e-01 8.888213e-01 0.000000e+00
5.519207e-01 8.331301e-01 0.000000e+00
5.666786e-01 8.820763e-01 0.000000e+00
5.408877e-01 8.888213e-01 0.000000e+00
5.549867e-01 9.417681e-01 0.000000e+00
5.666786e-01 8.820763e-01 0.000000e+00
5.826547e-01 9.341823e-01 0.000000e+00
5.519207e-01 8.331301e-01 0.000000e+00
5.666786e-01 8.820763e-01 0.000000e+00
5.756577e-01 8.259334e-01 0.000000e+00
5.921890e-01 8.742027e-01 0.000000e+00
5.666786e-01 8.820763e-01 0.000000e+00
5.826547e-01 9.341823e-01 0.000000e+00
5.921890e-01 8.742027e-01 0.000000e+00
6.100230e-01 9.254415e-01 0.000000e+00
5.756577e-01 8.259334e-01 0.000000e+00
5.921890e-01 8.742027e-01 0.000000e+00
5.990961e-01 8.177343e-01 0.000000e+00
6.173760e-01 8.652479e-01 0.000000e+00
5.921890e-01 8.742027e-01 0.000000e+00
6.100230e-01 9.254415e-01 0.000000e+00
6.173760e-01 8.652479e-01 0.000000e+00
6.370352e-01 9.155882e-01 0.000000e+00
5.990961e-01 8.177343e-01 0.000000e+00
6.173760e-01 8.652479e-01 0.000000e+00
6.222169e-01 8.085680e-01 0.000000e+00
6.422031e-01 8.552585e-01 0.000000e+00
6.173760e-01 8.652479e-01 0.000000e+00
6.370352e-01 9.155882e-01 0.000000e+00
6.422031e-01 8.552585e-01 0.000000e+00
6.636443e-01 9.046671e-01 0.000000e+00
6.222169e-01 8.085680e-01 0.000000e+00
6.422031e-01 8.552585e-01 0.000000e+00
6.449992e-01 7.984695e-01 0.000000e+00
6.666393e-01 8.442796e-01 0.000000e+00
6.422031e-01 8.552585e-01 0.000000e+00
6.636443e-01 9.046671e-01 0.000000e+00
6.666393e-01 8.442796e-01 0.000000e+00
6.898114e-01 8.927234e-01 0.000000e+00
6.449992e-01 7.984695e-01 0.000000e+00
6.666393e-01 8.442796e-01 0.000000e+00
6.674218e-01 7.874731e-01 0.000000e+00
6.906572e-01 8.323543e-01 0.000000e+00
6.666393e-01 8.442796e-01 0.000000e+00
6.898114e-01 8.927234e-01 0.000000e+00
6.906572e-01 8.323543e-01 0.000000e+00
7.155038e-01 8.798017e-01 0.000000e+00
6.674218e-01 7.874731e-01 0.000000e+00
6.906572e-01 8.323543e-01 0.000000e+00
6.894636e-01 7.756129e-01 0.000000e+00
7.142329e-01 8.195241e-01 0.000000e+00
6.906572e-01 8.323543e-01 0.000000e+00
7.155038e-01 8.798017e-01 0.000000e+00
7.142329e-01 8.195241e-01 0.000000e+00
7.406946e-01 8.659453e-01 0.000000e+00
6.894636e-01 7.756129e-01 0.000000e+00
7.142329e-01 8.195241e-01 0.000000e+00
7.111040e-01 7.629219e-01 0.000000e+00
7.373449e-01 8.058282e-01 0.000000e+00
7.142329e-01 8.195241e-01 0.000000e+00
7.406946e-01 8.659453e-01 0.000000e+00
7.373449e-01 8.058282e-01 0.000000e+00
7.653608e-01 8.511956e-01 0.000000e+00
7.111040e-01 7.629219e-01 0.000000e+00
7.373449e-01 8.058282e-01 0.000000e+00
7.323232e-01 7.494323e-01 0.000000e+00
7.599737e-01 7.913040e-01 0.000000e+00
7.373449e-01 8.058282e-01 0.000000e+00
7.653608e-01 8.511956e-01 0.000000e+00
7.599737e-01 7.913040e-01 0.000000e+00
7.894826e-01 8.355923e-01 0.000000e+00
7.323232e-01 7.494323e-01 0.000000e+00
7.599737e-01 7.913040e-01 0.000000e+00
7.531025e-01 7.351758e-01 0.000000e+00
7.821017e-01 7.759874e-01 0.000000e+00
7.599737e-01 7.913040e-01 0.000000e+00
7.894826e-01 8.355923e-01 0.000000e+00
7.821017e-01 7.759874e-01 0.000000e+00
8.130430e-01 8.191731e-01 0.000000e+00
7.531025e-01 7.351758e-01 0.000000e+00
7.821017e-01 7.759874e-01 0.000000e+00
7.734241e-01 7.201827e-01 0.000000e+00
8.037126e-01 7.599121e-01 0.000000e+00
7.821017e-01 7.759874e-01 0.000000e+00
8.130430e-01 8.191731e-01 0.000000e+00
8.037126e-01 7.599121e-01 0.000000e+00
8.360268e-01 8.019738e-01 0.000000e+00
7.734241e-01 7.201827e-01 0.000000e+00
[...]
<PointData>
<DataArray type="Float32" Name="V1" format="ascii">
1.337847e+01
5.010517e+00
1.338147e+01
5.013515e+00
5.282808e+00
6.903209e-01
5.287201e+00
6.947134e-01
1.337937e+01
5.015596e+00
1.338642e+01
5.022647e+00
5.287507e+00
6.939366e-01
5.298527e+00
7.049570e-01
1.338194e+01
5.027221e+00
1.339324e+01
5.038515e+00
5.299382e+00
7.038053e-01
5.318307e+00
7.227296e-01
1.338472e+01
5.046789e+00
1.339908e+01
5.061143e+00
5.319240e+00
7.210989e-01
5.346995e+00
7.488536e-01
1.338449e+01
5.075187e+00
1.340019e+01
5.090891e+00
5.347543e+00
7.468910e-01
5.385587e+00
7.849351e-01
1.337649e+01
5.113745e+00
1.339121e+01
5.128467e+00
5.385034e+00
7.828947e-01
5.435584e+00
8.334441e-01
1.335417e+01
5.164388e+00
1.336486e+01
5.175077e+00
5.432841e+00
8.317332e-01
5.499184e+00
8.980766e-01
1.330883e+01
5.229830e+00
1.331165e+01
5.232644e+00
5.492595e+00
8.973761e-01
5.579561e+00
9.843418e-01
1.322939e+01
5.313803e+00
1.321967e+01
5.304092e+00
5.566561e+00
9.858205e-01
5.681213e+00
1.100472e+00
1.310228e+01
5.421234e+00
1.307473e+01
5.393690e+00
5.657736e+00
1.106211e+00
5.810421e+00
1.258896e+00
1.291202e+01
5.558262e+00
1.286118e+01
5.507421e+00
5.769810e+00
1.272729e+00
5.975769e+00
1.478688e+00
1.264281e+01
5.731912e+00
1.256421e+01
5.653319e+00
5.906725e+00
1.507913e+00
6.188572e+00
1.789760e+00
1.228218e+01
5.949093e+00
1.217460e+01
5.841512e+00
6.071054e+00
1.848717e+00
6.462612e+00
2.240276e+00
1.182751e+01
6.215945e+00
1.169523e+01
6.083670e+00
6.257986e+00
2.359308e+00
6.809372e+00
2.910695e+00
1.129906e+01
6.531593e+00
1.115380e+01
6.386333e+00
6.427784e+00
3.163718e+00
7.214629e+00
3.950563e+00
1.069798e+01
6.947922e+00
1.058474e+01
6.834688e+00
6.416980e+00
4.652690e+00
7.342049e+00
5.577759e+00
1.018518e+01
7.312042e+00
1.007864e+01
7.205508e+00
6.865343e+00
5.911651e+00
7.323601e+00
6.369909e+00
9.794181e+00
7.509764e+00
9.740227e+00
7.455810e+00
7.246527e+00
6.382680e+00
7.551592e+00
6.687746e+00
9.535155e+00
7.670031e+00
9.519266e+00
7.654142e+00
7.474250e+00
6.725458e+00
7.715534e+00
6.966741e+00
9.390142e+00
7.793490e+00
9.412418e+00
7.815766e+00
7.653659e+00
7.002773e+00
7.857410e+00
7.206524e+00
9.331318e+00
7.906073e+00
9.385027e+00
7.959782e+00
7.810907e+00
7.235491e+00
7.987220e+00
7.411804e+00
9.335566e+00
8.015930e+00
9.412413e+00
8.092777e+00
7.956270e+00
7.431536e+00
8.110662e+00
7.585928e+00
9.384323e+00
8.124974e+00
9.477122e+00
8.217772e+00
8.093141e+00
7.596982e+00
8.229349e+00
7.733191e+00
9.464076e+00
8.232745e+00
9.567196e+00
8.335866e+00
8.222608e+00
7.737043e+00
8.343516e+00
7.857951e+00
9.565017e+00
8.338287e+00
9.674206e+00
8.447476e+00
8.344998e+00
7.856251e+00
8.452939e+00
7.964192e+00
9.679965e+00
8.440719e+00
9.792054e+00
8.552808e+00
8.460467e+00
7.958416e+00
8.557360e+00
8.055309e+00
9.803602e+00
8.539387e+00
9.916252e+00
8.652037e+00
8.569187e+00
8.046664e+00
8.656613e+00
8.134091e+00
9.931958e+00
8.633865e+00
1.004346e+01
8.745366e+00
8.671383e+00
8.123515e+00
8.750647e+00
8.202780e+00
1.006207e+01
8.723913e+00
1.017119e+01
8.833032e+00
8.767325e+00
8.190985e+00
8.839505e+00
8.263165e+00
1.019174e+01
8.809428e+00
1.029760e+01
8.915295e+00
8.857314e+00
8.250682e+00
8.923302e+00
8.316670e+00
1.031934e+01
8.890409e+00
1.042136e+01
8.992429e+00
8.941665e+00
8.303889e+00
9.002201e+00
8.364426e+00
1.044369e+01
8.966924e+00
1.054148e+01
9.064710e+00
9.020691e+00
8.351631e+00
9.076396e+00
8.407335e+00
1.056398e+01
9.039090e+00
1.065730e+01
9.132412e+00
9.094703e+00
8.394728e+00
9.146095e+00
8.446121e+00
1.067962e+01
9.107053e+00
1.076837e+01
9.195800e+00
9.163997e+00
8.433844e+00
9.211516e+00
8.481363e+00
1.079027e+01
9.170980e+00
1.087442e+01
9.255126e+00
9.228857e+00
8.469515e+00
9.272876e+00
8.513534e+00
1.089571e+01
9.231046e+00
1.097530e+01
9.310628e+00
9.289551e+00
8.502177e+00
9.330387e+00
8.543013e+00
1.099585e+01
9.287430e+00
1.107095e+01
9.362533e+00
9.346328e+00
8.532188e+00
9.384255e+00
8.570115e+00
1.109068e+01
9.340312e+00
1.116142e+01
9.411048e+00
9.399422e+00
8.559842e+00
9.434677e+00
8.595097e+00
1.118025e+01
9.389865e+00
1.124676e+01
9.456372e+00
9.449051e+00
8.585383e+00
9.481840e+00
8.618172e+00
1.126467e+01
9.436259e+00
1.132709e+01
9.498684e+00
9.495416e+00
8.609016e+00
9.525920e+00
8.639520e+00
1.134406e+01
9.479656e+00
1.140256e+01
9.538153e+00
9.538705e+00
8.630913e+00
9.567082e+00
8.659290e+00
1.141858e+01
9.520209e+00
1.147331e+01
9.574936e+00
9.579091e+00
8.651219e+00
9.605481e+00
8.677609e+00
1.148840e+01
9.558062e+00
1.153951e+01
9.609175e+00
9.616732e+00
8.670059e+00
9.641261e+00
8.694587e+00
1.155367e+01
9.593353e+00
1.160132e+01
9.641005e+00
9.651777e+00
8.687539e+00
9.674555e+00
8.710317e+00
1.161458e+01
9.626208e+00
1.165892e+01
9.670546e+00
9.684361e+00
8.703753e+00
9.705488e+00
8.724880e+00
1.167129e+01
9.656748e+00
1.171246e+01
9.697912e+00
9.714610e+00
8.718781e+00
9.734175e+00
8.738345e+00
1.172397e+01
9.685081e+00
1.176210e+01
9.723205e+00
9.742637e+00
8.732692e+00
9.760721e+00
8.750776e+00
1.177278e+01
9.711311e+00
1.180799e+01
9.746520e+00
9.768549e+00
8.745551e+00
9.785223e+00
8.762225e+00
1.181786e+01
9.735533e+00
1.185027e+01
9.767943e+00
9.792442e+00
8.757410e+00
9.807772e+00
8.772740e+00
1.185937e+01
9.757832e+00
1.188909e+01
9.787553e+00
9.814405e+00
8.768320e+00
9.828448e+00
8.782364e+00
1.189742e+01
9.778290e+00
1.192456e+01
9.805421e+00
9.834516e+00
8.778323e+00
9.847327e+00
8.791134e+00
1.193216e+01
9.796978e+00
1.195679e+01
9.821612e+00
9.852851e+00
8.787458e+00
9.864476e+00
8.799083e+00
1.196368e+01
9.813963e+00
1.198590e+01
9.836184e+00
9.869474e+00
8.795758e+00
9.879956e+00
8.806240e+00
1.199210e+01
9.829306e+00
1.201198e+01
9.849188e+00
9.884445e+00
8.803254e+00
9.893821e+00
8.812630e+00
1.201751e+01
9.843060e+00
1.203512e+01
9.860672e+00
9.897818e+00
8.809974e+00
9.906122e+00
8.818277e+00
1.203998e+01
9.855274e+00
1.205539e+01
9.870676e+00
9.909640e+00
8.815940e+00
9.916900e+00
8.823200e+00
1.205961e+01
9.865990e+00
1.207286e+01
9.879234e+00
9.919952e+00
8.821173e+00
9.926194e+00
8.827415e+00
1.207645e+01
9.875246e+00
1.208758e+01
9.886376e+00
9.928790e+00
8.825692e+00
9.934036e+00
8.830938e+00
1.209057e+01
9.883073e+00
1.209962e+01
9.892128e+00
9.936186e+00
8.829511e+00
9.940454e+00
8.833779e+00
1.210199e+01
9.889498e+00
1.210901e+01
9.896510e+00
9.942164e+00
8.832644e+00
9.945469e+00
8.835948e+00
1.211078e+01
9.894545e+00
1.211577e+01
9.899537e+00
9.946747e+00
8.835100e+00
9.949099e+00
8.837453e+00
1.211695e+01
9.898230e+00
1.211994e+01
9.901218e+00
9.949948e+00
8.836889e+00
9.951357e+00
8.838297e+00
1.212053e+01
9.900566e+00
1.212152e+01
9.901561e+00
9.951780e+00
8.838016e+00
9.952249e+00
8.838485e+00
</DataArray>
<DataArray type="Float32" Name="V2" format="ascii">
8.522742e-01
9.018305e-01
8.527052e-01
9.022418e-01
9.018305e-01
9.600000e-01
9.022418e-01
9.603814e-01
8.527052e-01
9.022418e-01
8.539941e-01
9.034749e-01
9.022418e-01
9.603814e-01
9.034749e-01
9.615251e-01
8.539941e-01
9.034749e-01
8.561401e-01
9.055295e-01
9.034749e-01
9.615251e-01
9.055295e-01
9.634301e-01
8.561401e-01
9.055295e-01
8.591393e-01
9.084043e-01
9.055295e-01
9.634301e-01
9.084043e-01
9.660948e-01
8.591393e-01
9.084043e-01
8.629860e-01
9.120980e-01
9.084043e-01
9.660948e-01
9.120980e-01
9.695171e-01
8.629860e-01
9.120980e-01
8.676723e-01
9.166083e-01
9.120980e-01
9.695171e-01
9.166083e-01
9.736947e-01
8.676723e-01
9.166083e-01
8.731864e-01
9.219323e-01
9.166083e-01
9.736947e-01
9.219323e-01
9.786255e-01
8.731864e-01
9.219323e-01
8.795120e-01
9.280654e-01
9.219323e-01
9.786255e-01
9.280654e-01
9.843080e-01
8.795120e-01
9.280654e-01
8.866259e-01
9.350004e-01
9.280654e-01
9.843080e-01
9.350004e-01
9.907414e-01
8.866259e-01
9.350004e-01
8.944947e-01
9.427248e-01
9.350004e-01
9.907414e-01
9.427248e-01
9.979260e-01
8.944947e-01
9.427248e-01
9.030705e-01
9.512165e-01
9.427248e-01
9.979260e-01
9.512165e-01
1.005863e+00
9.030705e-01
9.512165e-01
9.122838e-01
9.604358e-01
9.512165e-01
1.005863e+00
9.604358e-01
1.014555e+00
9.122838e-01
9.604358e-01
9.220346e-01
9.703098e-01
9.604358e-01
1.014555e+00
9.703098e-01
1.024001e+00
9.220346e-01
9.703098e-01
9.321803e-01
9.807043e-01
9.703098e-01
1.024001e+00
9.807043e-01
1.034196e+00
9.321803e-01
9.807043e-01
9.425046e-01
9.913651e-01
9.807043e-01
1.034196e+00
9.913651e-01
1.045116e+00
9.425046e-01
9.913651e-01
9.527978e-01
1.002027e+00
9.913651e-01
1.045116e+00
1.002027e+00
1.056278e+00
9.527978e-01
1.002027e+00
9.627342e-01
1.012164e+00
1.002027e+00
1.056278e+00
1.012164e+00
1.066139e+00
9.627342e-01
1.012164e+00
9.722059e-01
1.021761e+00
1.012164e+00
1.066139e+00
1.021761e+00
1.075427e+00
9.722059e-01
1.021761e+00
9.811399e-01
1.030780e+00
1.021761e+00
1.075427e+00
1.030780e+00
1.084202e+00
9.811399e-01
1.030780e+00
9.895529e-01
1.039264e+00
1.030780e+00
1.084202e+00
1.039264e+00
1.092506e+00
9.895529e-01
1.039264e+00
9.974722e-01
1.047240e+00
1.039264e+00
1.092506e+00
1.047240e+00
1.100353e+00
9.974722e-01
1.047240e+00
1.004930e+00
1.054737e+00
1.047240e+00
1.100353e+00
1.054737e+00
1.107758e+00
1.004930e+00
1.054737e+00
1.011955e+00
1.061786e+00
1.054737e+00
1.107758e+00
1.061786e+00
1.114739e+00
1.011955e+00
1.061786e+00
1.018577e+00
1.068414e+00
1.061786e+00
1.114739e+00
1.068414e+00
1.121315e+00
1.018577e+00
1.068414e+00
1.024822e+00
1.074649e+00
1.068414e+00
1.121315e+00
1.074649e+00
1.127509e+00
1.024822e+00
1.074649e+00
1.030713e+00
1.080519e+00
1.074649e+00
1.127509e+00
1.080519e+00
1.133343e+00
1.030713e+00
1.080519e+00
1.036272e+00
1.086047e+00
1.080519e+00
1.133343e+00
1.086047e+00
1.138839e+00
1.036272e+00
1.086047e+00
1.041521e+00
1.091256e+00
1.086047e+00
1.138839e+00
1.091256e+00
1.144018e+00
1.041521e+00
1.091256e+00
1.046478e+00
1.096169e+00
1.091256e+00
1.144018e+00
1.096169e+00
1.148901e+00
1.046478e+00
1.096169e+00
1.051162e+00
1.100803e+00
1.096169e+00
1.148901e+00
1.100803e+00
1.153506e+00
1.051162e+00
1.100803e+00
1.055588e+00
1.105178e+00
1.100803e+00
1.153506e+00
1.105178e+00
1.157851e+00
1.055588e+00
1.105178e+00
1.059772e+00
1.109308e+00
1.105178e+00
1.157851e+00
1.109308e+00
1.161952e+00
1.059772e+00
1.109308e+00
1.063728e+00
1.113209e+00
1.109308e+00
1.161952e+00
1.113209e+00
1.165824e+00
1.063728e+00
1.113209e+00
1.067468e+00
1.116895e+00
1.113209e+00
1.165824e+00
1.116895e+00
1.169481e+00
1.067468e+00
1.116895e+00
1.071003e+00
1.120377e+00
1.116895e+00
1.169481e+00
1.120377e+00
1.172934e+00
1.071003e+00
1.120377e+00
1.074346e+00
1.123667e+00
1.120377e+00
1.172934e+00
1.123667e+00
1.176196e+00
1.074346e+00
1.123667e+00
1.077505e+00
1.126775e+00
1.123667e+00
1.176196e+00
1.126775e+00
1.179276e+00
1.077505e+00
1.126775e+00
1.080489e+00
1.129710e+00
1.126775e+00
1.179276e+00
1.129710e+00
1.182183e+00
1.080489e+00
1.129710e+00
1.083307e+00
1.132481e+00
1.129710e+00
1.182183e+00
1.132481e+00
1.184927e+00
1.083307e+00
1.132481e+00
1.085966e+00
1.135094e+00
1.132481e+00
1.184927e+00
1.135094e+00
1.187515e+00
1.085966e+00
1.135094e+00
1.088473e+00
1.137558e+00
1.135094e+00
1.187515e+00
1.137558e+00
1.189953e+00
1.088473e+00
1.137558e+00
1.090834e+00
1.139877e+00
1.137558e+00
1.189953e+00
1.139877e+00
1.192249e+00
1.090834e+00
1.139877e+00
1.093054e+00
1.142059e+00
1.139877e+00
1.192249e+00
1.142059e+00
1.194407e+00
1.093054e+00
1.142059e+00
1.095140e+00
1.144107e+00
1.142059e+00
1.194407e+00
1.144107e+00
1.196434e+00
1.095140e+00
1.144107e+00
1.097095e+00
1.146027e+00
1.144107e+00
1.196434e+00
1.146027e+00
1.198333e+00
1.097095e+00
1.146027e+00
1.098923e+00
1.147824e+00
1.146027e+00
1.198333e+00
1.147824e+00
1.200110e+00
1.098923e+00
1.147824e+00
1.100630e+00
1.149500e+00
1.147824e+00
1.200110e+00
1.149500e+00
1.201768e+00
1.100630e+00
1.149500e+00
1.102217e+00
1.151059e+00
1.149500e+00
1.201768e+00
1.151059e+00
1.203310e+00
1.102217e+00
1.151059e+00
1.103689e+00
1.152505e+00
1.151059e+00
1.203310e+00
1.152505e+00
1.204739e+00
1.103689e+00
1.152505e+00
1.105048e+00
1.153840e+00
1.152505e+00
1.204739e+00
1.153840e+00
1.206059e+00
1.105048e+00
1.153840e+00
1.106298e+00
1.155067e+00
1.153840e+00
1.206059e+00
1.155067e+00
1.207272e+00
1.106298e+00
1.155067e+00
1.107439e+00
1.156188e+00
1.155067e+00
1.207272e+00
1.156188e+00
1.208381e+00
1.107439e+00
1.156188e+00
1.108474e+00
1.157205e+00
1.156188e+00
1.208381e+00
1.157205e+00
1.209386e+00
1.108474e+00
1.157205e+00
1.109406e+00
1.158121e+00
1.157205e+00
1.209386e+00
1.158121e+00
1.210291e+00
1.109406e+00
1.158121e+00
1.110235e+00
1.158935e+00
1.158121e+00
1.210291e+00
1.158935e+00
1.211097e+00
1.110235e+00
1.158935e+00
1.110964e+00
1.159651e+00
1.158935e+00
1.211097e+00
1.159651e+00
1.211804e+00
1.110964e+00
1.159651e+00
1.111593e+00
1.160269e+00
1.159651e+00
1.211804e+00
1.160269e+00
1.212415e+00
1.111593e+00
1.160269e+00
1.112124e+00
1.160790e+00
1.160269e+00
1.212415e+00
1.160790e+00
1.212930e+00
1.112124e+00
1.160790e+00
1.112556e+00
1.161216e+00
1.160790e+00
1.212930e+00
1.161216e+00
1.213351e+00
1.112556e+00
1.161216e+00
1.112892e+00
1.161546e+00
1.161216e+00
1.213351e+00
1.161546e+00
1.213677e+00
1.112892e+00
1.161546e+00
1.113132e+00
1.161781e+00
1.161546e+00
1.213677e+00
1.161781e+00
1.213910e+00
1.113132e+00
1.161781e+00
1.113276e+00
1.161922e+00
1.161781e+00
1.213910e+00
1.161922e+00
1.214049e+00
1.113276e+00
1.161922e+00
1.113323e+00
1.161969e+00
1.161922e+00
1.214049e+00
1.161969e+00
1.214096e+00
</DataArray>
<DataArray type="Float32" Name="V3" format="ascii">
0.000000e+00
0.000000e+00
5.979141e-03
4.749779e-03
0.000000e+00
0.000000e+00
4.749779e-03
3.323715e-03
5.979141e-03
4.749779e-03
1.191520e-02
9.462608e-03
4.749779e-03
3.323715e-03
9.462608e-03
6.617315e-03
1.191520e-02
9.462608e-03
1.776450e-02
1.410164e-02
9.462608e-03
6.617315e-03
1.410164e-02
9.851246e-03
1.776450e-02
1.410164e-02
2.348278e-02
1.863007e-02
1.410164e-02
9.851246e-03
1.863007e-02
1.299685e-02
2.348278e-02
1.863007e-02
2.902458e-02
2.301117e-02
1.863007e-02
1.299685e-02
2.301117e-02
1.602689e-02
2.902458e-02
2.301117e-02
3.434279e-02
2.720834e-02
2.301117e-02
1.602689e-02
2.720834e-02
1.891604e-02
3.434279e-02
2.720834e-02
3.938823e-02
3.118494e-02
2.720834e-02
1.891604e-02
3.118494e-02
2.164126e-02
3.938823e-02
3.118494e-02
4.410915e-02
3.490423e-02
3.118494e-02
2.164126e-02
3.490423e-02
2.418208e-02
4.410915e-02
3.490423e-02
4.845106e-02
3.832894e-02
3.490423e-02
2.418208e-02
3.832894e-02
2.652068e-02
4.845106e-02
3.832894e-02
5.235682e-02
4.142070e-02
3.832894e-02
2.652068e-02
4.142070e-02
2.864135e-02
5.235682e-02
4.142070e-02
5.576777e-02
4.413886e-02
4.142070e-02
2.864135e-02
4.413886e-02
3.052913e-02
5.576777e-02
4.413886e-02
5.862645e-02
4.643855e-02
4.413886e-02
3.052913e-02
4.643855e-02
3.216679e-02
5.862645e-02
4.643855e-02
6.088214e-02
4.826756e-02
4.643855e-02
3.216679e-02
4.826756e-02
3.352960e-02
6.088214e-02
4.826756e-02
6.249943e-02
4.956363e-02
4.826756e-02
3.352960e-02
4.956363e-02
3.457676e-02
6.249943e-02
4.956363e-02
6.346816e-02
5.027804e-02
4.956363e-02
3.457676e-02
5.027804e-02
3.522951e-02
6.346816e-02
5.027804e-02
6.388128e-02
5.053111e-02
5.027804e-02
3.522951e-02
5.053111e-02
3.527648e-02
6.388128e-02
5.053111e-02
6.386057e-02
5.050755e-02
5.053111e-02
3.527648e-02
5.050755e-02
3.553910e-02
6.386057e-02
5.050755e-02
6.349742e-02
5.032777e-02
5.050755e-02
3.553910e-02
5.032777e-02
3.597705e-02
6.349742e-02
5.032777e-02
6.292958e-02
5.013498e-02
5.032777e-02
3.597705e-02
5.013498e-02
3.647770e-02
6.292958e-02
5.013498e-02
6.221998e-02
4.993693e-02
5.013498e-02
3.647770e-02
4.993693e-02
3.699697e-02
6.221998e-02
4.993693e-02
6.141233e-02
4.971993e-02
4.993693e-02
3.699697e-02
4.971993e-02
3.750265e-02
6.141233e-02
4.971993e-02
6.053275e-02
4.946945e-02
4.971993e-02
3.750265e-02
4.946945e-02
3.796932e-02
6.053275e-02
4.946945e-02
5.959759e-02
4.917482e-02
4.946945e-02
3.796932e-02
4.917482e-02
3.837716e-02
5.959759e-02
4.917482e-02
5.861714e-02
4.882884e-02
4.917482e-02
3.837716e-02
4.882884e-02
3.871158e-02
5.861714e-02
4.882884e-02
5.759788e-02
4.842689e-02
4.882884e-02
3.871158e-02
4.842689e-02
3.896242e-02
5.759788e-02
4.842689e-02
5.654389e-02
4.796610e-02
4.842689e-02
3.896242e-02
4.796610e-02
3.912321e-02
5.654389e-02
4.796610e-02
5.545761e-02
4.744489e-02
4.796610e-02
3.912321e-02
4.744489e-02
3.919033e-02
5.545761e-02
4.744489e-02
5.434051e-02
4.686261e-02
4.744489e-02
3.919033e-02
4.686261e-02
3.916240e-02
5.434051e-02
4.686261e-02
5.319340e-02
4.621934e-02
4.686261e-02
3.916240e-02
4.621934e-02
3.903964e-02
5.319340e-02
4.621934e-02
5.201669e-02
4.551565e-02
4.621934e-02
3.903964e-02
4.551565e-02
3.882350e-02
5.201669e-02
4.551565e-02
5.081060e-02
4.475257e-02
4.551565e-02
3.882350e-02
4.475257e-02
3.851627e-02
5.081060e-02
4.475257e-02
4.957525e-02
4.393142e-02
4.475257e-02
3.851627e-02
4.393142e-02
3.812084e-02
4.957525e-02
4.393142e-02
4.831075e-02
4.305377e-02
4.393142e-02
3.812084e-02
4.305377e-02
3.764050e-02
4.831075e-02
4.305377e-02
4.701725e-02
4.212135e-02
4.305377e-02
3.764050e-02
4.212135e-02
3.707878e-02
4.701725e-02
4.212135e-02
4.569493e-02
4.113602e-02
4.212135e-02
3.707878e-02
4.113602e-02
3.643935e-02
4.569493e-02
4.113602e-02
4.434411e-02
4.009974e-02
4.113602e-02
3.643935e-02
4.009974e-02
3.572592e-02
4.434411e-02
4.009974e-02
4.296515e-02
3.901451e-02
4.009974e-02
3.572592e-02
3.901451e-02
3.494220e-02
4.296515e-02
3.901451e-02
4.155853e-02
3.788236e-02
3.901451e-02
3.494220e-02
3.788236e-02
3.409187e-02
4.155853e-02
3.788236e-02
4.012480e-02
3.670535e-02
3.788236e-02
3.409187e-02
3.670535e-02
3.317853e-02
4.012480e-02
3.670535e-02
3.866461e-02
3.548551e-02
3.670535e-02
3.317853e-02
3.548551e-02
3.220566e-02
3.866461e-02
3.548551e-02
3.717866e-02
3.422491e-02
3.548551e-02
3.220566e-02
3.422491e-02
3.117668e-02
3.717866e-02
3.422491e-02
3.566775e-02
3.292555e-02
3.422491e-02
3.117668e-02
3.292555e-02
3.009486e-02
3.566775e-02
3.292555e-02
3.413273e-02
3.158943e-02
3.292555e-02
3.009486e-02
3.158943e-02
2.896339e-02
3.413273e-02
3.158943e-02
3.257449e-02
3.021854e-02
3.158943e-02
2.896339e-02
3.021854e-02
2.778533e-02
3.257449e-02
3.021854e-02
3.099400e-02
2.881482e-02
3.021854e-02
2.778533e-02
2.881482e-02
2.656365e-02
3.099400e-02
2.881482e-02
2.939225e-02
2.738019e-02
2.881482e-02
2.656365e-02
2.738019e-02
2.530120e-02
2.939225e-02
2.738019e-02
2.777027e-02
2.591654e-02
2.738019e-02
2.530120e-02
2.591654e-02
2.400074e-02
2.777027e-02
2.591654e-02
2.612913e-02
2.442573e-02
2.591654e-02
2.400074e-02
2.442573e-02
2.266495e-02
2.612913e-02
2.442573e-02
2.446993e-02
2.290960e-02
2.442573e-02
2.266495e-02
2.290960e-02
2.129641e-02
2.446993e-02
2.290960e-02
2.279378e-02
2.136995e-02
2.290960e-02
2.129641e-02
2.136995e-02
1.989764e-02
2.279378e-02
2.136995e-02
2.110184e-02
1.980857e-02
2.136995e-02
1.989764e-02
1.980857e-02
1.847106e-02
2.110184e-02
1.980857e-02
1.939525e-02
1.822723e-02
1.980857e-02
1.847106e-02
1.822723e-02
1.701907e-02
1.939525e-02
1.822723e-02
1.767520e-02
1.662765e-02
1.822723e-02
1.701907e-02
1.662765e-02
1.554396e-02
1.767520e-02
1.662765e-02
1.594287e-02
1.501155e-02
1.662765e-02
1.554396e-02
1.501155e-02
1.404800e-02
1.594287e-02
1.501155e-02
1.419947e-02
1.338065e-02
1.501155e-02
1.404800e-02
1.338065e-02
1.253341e-02
1.419947e-02
1.338065e-02
1.244620e-02
1.173663e-02
1.338065e-02
1.253341e-02
1.173663e-02
1.100235e-02
1.244620e-02
1.173663e-02
1.068427e-02
1.008115e-02
1.173663e-02
1.100235e-02
1.008115e-02
9.456971e-03
1.068427e-02
1.008115e-02
8.914929e-03
8.415870e-03
1.008115e-02
9.456971e-03
8.415870e-03
7.899364e-03
8.914929e-03
8.415870e-03
7.139388e-03
6.742449e-03
8.415870e-03
7.899364e-03
6.742449e-03
6.331610e-03
7.139388e-03
6.742449e-03
5.358886e-03
5.062521e-03
6.742449e-03
6.331610e-03
5.062521e-03
4.755765e-03
5.358886e-03
5.062521e-03
3.574661e-03
3.377719e-03
5.062521e-03
4.755765e-03
3.377719e-03
3.173866e-03
3.574661e-03
3.377719e-03
1.787951e-03
1.689671e-03
3.377719e-03
3.173866e-03
1.689671e-03
1.587939e-03
1.787951e-03
1.689671e-03
0.000000e+00
0.000000e+00
1.689671e-03
1.587939e-03
0.000000e+00
0.000000e+00
</DataArray>
<DataArray type="Float32" Name="V4" format="ascii">
8.500000e-01
9.250000e-01
8.500000e-01
9.250000e-01
9.250000e-01
1.000000e+00