<?xml version="1.0"?>
<VTKFile type="UnstructuredGrid" version="0.1" byte_order="LittleEndian" compressor="vtkZLibDataCompressor">
<UnstructuredGrid>
<Piece NumberOfPoints="504" NumberOfCells="126">
<Points>
<DataArray type="Float32" NumberOfComponents="3" format="ascii">
0.000000e+00 4.262511e-01 0.000000e+00
0.000000e+00 4.509539e-01 0.000000e+00
3.857574e-02 4.262593e-01 0.000000e+00
3.857205e-02 4.509559e-01 0.000000e+00
0.000000e+00 4.509539e-01 0.000000e+00
0.000000e+00 4.800000e-01 0.000000e+00
3.857205e-02 4.509559e-01 0.000000e+00
3.857067e-02 4.800000e-01 0.000000e+00
3.857574e-02 4.262593e-01 0.000000e+00
3.857205e-02 4.509559e-01 0.000000e+00
7.715045e-02 4.262727e-01 0.000000e+00
7.714300e-02 4.509631e-01 0.000000e+00
3.857205e-02 4.509559e-01 0.000000e+00
3.857067e-02 4.800000e-01 0.000000e+00
7.714300e-02 4.509631e-01 0.000000e+00
7.714013e-02 4.800000e-01 0.000000e+00
7.715045e-02 4.262727e-01 0.000000e+00
7.714300e-02 4.509631e-01 0.000000e+00
1.157227e-01 4.262948e-01 0.000000e+00
1.157115e-01 4.509751e-01 0.000000e+00
7.714300e-02 4.509631e-01 0.000000e+00
7.714013e-02 4.800000e-01 0.000000e+00
1.157115e-01 4.509751e-01 0.000000e+00
1.157072e-01 4.800000e-01 0.000000e+00
1.157227e-01 4.262948e-01 0.000000e+00
1.157115e-01 4.509751e-01 0.000000e+00
1.542911e-01 4.263258e-01 0.000000e+00
1.542763e-01 4.509919e-01 0.000000e+00
1.157115e-01 4.509751e-01 0.000000e+00
1.157072e-01 4.800000e-01 0.000000e+00
1.542763e-01 4.509919e-01 0.000000e+00
1.542706e-01 4.800000e-01 0.000000e+00
1.542911e-01 4.263258e-01 0.000000e+00
1.542763e-01 4.509919e-01 0.000000e+00
1.928547e-01 4.263656e-01 0.000000e+00
1.928362e-01 4.510134e-01 0.000000e+00
1.542763e-01 4.509919e-01 0.000000e+00
1.542706e-01 4.800000e-01 0.000000e+00
1.928362e-01 4.510134e-01 0.000000e+00
1.928291e-01 4.800000e-01 0.000000e+00
1.928547e-01 4.263656e-01 0.000000e+00
1.928362e-01 4.510134e-01 0.000000e+00
2.314119e-01 4.264142e-01 0.000000e+00
2.313899e-01 4.510397e-01 0.000000e+00
1.928362e-01 4.510134e-01 0.000000e+00
1.928291e-01 4.800000e-01 0.000000e+00
2.313899e-01 4.510397e-01 0.000000e+00
2.313815e-01 4.800000e-01 0.000000e+00
2.314119e-01 4.264142e-01 0.000000e+00
2.313899e-01 4.510397e-01 0.000000e+00
2.699617e-01 4.264715e-01 0.000000e+00
2.699361e-01 4.510708e-01 0.000000e+00
2.313899e-01 4.510397e-01 0.000000e+00
2.313815e-01 4.800000e-01 0.000000e+00
2.699361e-01 4.510708e-01 0.000000e+00
2.699265e-01 4.800000e-01 0.000000e+00
2.699617e-01 4.264715e-01 0.000000e+00
2.699361e-01 4.510708e-01 0.000000e+00
3.085027e-01 4.265376e-01 0.000000e+00
3.084737e-01 4.511065e-01 0.000000e+00
2.699361e-01 4.510708e-01 0.000000e+00
2.699265e-01 4.800000e-01 0.000000e+00
3.084737e-01 4.511065e-01 0.000000e+00
3.084628e-01 4.800000e-01 0.000000e+00
3.085027e-01 4.265376e-01 0.000000e+00
3.084737e-01 4.511065e-01 0.000000e+00
3.470335e-01 4.266123e-01 0.000000e+00
3.470012e-01 4.511470e-01 0.000000e+00
3.084737e-01 4.511065e-01 0.000000e+00
3.084628e-01 4.800000e-01 0.000000e+00
3.470012e-01 4.511470e-01 0.000000e+00
3.469892e-01 4.800000e-01 0.000000e+00
3.470335e-01 4.266123e-01 0.000000e+00
3.470012e-01 4.511470e-01 0.000000e+00
3.855529e-01 4.266957e-01 0.000000e+00
3.855174e-01 4.511921e-01 0.000000e+00
3.470012e-01 4.511470e-01 0.000000e+00
3.469892e-01 4.800000e-01 0.000000e+00
3.855174e-01 4.511921e-01 0.000000e+00
3.855044e-01 4.800000e-01 0.000000e+00
3.855529e-01 4.266957e-01 0.000000e+00
3.855174e-01 4.511921e-01 0.000000e+00
4.240594e-01 4.267876e-01 0.000000e+00
4.240209e-01 4.512419e-01 0.000000e+00
3.855174e-01 4.511921e-01 0.000000e+00
3.855044e-01 4.800000e-01 0.000000e+00
4.240209e-01 4.512419e-01 0.000000e+00
4.240070e-01 4.800000e-01 0.000000e+00
4.240594e-01 4.267876e-01 0.000000e+00
4.240209e-01 4.512419e-01 0.000000e+00
4.625518e-01 4.268880e-01 0.000000e+00
4.625103e-01 4.512962e-01 0.000000e+00
4.240209e-01 4.512419e-01 0.000000e+00
4.240070e-01 4.800000e-01 0.000000e+00
4.625103e-01 4.512962e-01 0.000000e+00
4.624957e-01 4.800000e-01 0.000000e+00
4.625518e-01 4.268880e-01 0.000000e+00
4.625103e-01 4.512962e-01 0.000000e+00
5.010284e-01 4.269968e-01 0.000000e+00
5.009842e-01 4.513551e-01 0.000000e+00
4.625103e-01 4.512962e-01 0.000000e+00
4.624957e-01 4.800000e-01 0.000000e+00
5.009842e-01 4.513551e-01 0.000000e+00
5.009691e-01 4.800000e-01 0.000000e+00
5.010284e-01 4.269968e-01 0.000000e+00
5.009842e-01 4.513551e-01 0.000000e+00
5.394880e-01 4.271139e-01 0.000000e+00
5.394413e-01 4.514186e-01 0.000000e+00
5.009842e-01 4.513551e-01 0.000000e+00
5.009691e-01 4.800000e-01 0.000000e+00
5.394413e-01 4.514186e-01 0.000000e+00
5.394258e-01 4.800000e-01 0.000000e+00
5.394880e-01 4.271139e-01 0.000000e+00
5.394413e-01 4.514186e-01 0.000000e+00
5.779288e-01 4.272393e-01 0.000000e+00
5.778799e-01 4.514865e-01 0.000000e+00
5.394413e-01 4.514186e-01 0.000000e+00
5.394258e-01 4.800000e-01 0.000000e+00
5.778799e-01 4.514865e-01 0.000000e+00
5.778643e-01 4.800000e-01 0.000000e+00
5.779288e-01 4.272393e-01 0.000000e+00
5.778799e-01 4.514865e-01 0.000000e+00
6.163495e-01 4.273729e-01 0.000000e+00
6.162987e-01 4.515589e-01 0.000000e+00
5.778799e-01 4.514865e-01 0.000000e+00
5.778643e-01 4.800000e-01 0.000000e+00
6.162987e-01 4.515589e-01 0.000000e+00
6.162832e-01 4.800000e-01 0.000000e+00
6.163495e-01 4.273729e-01 0.000000e+00
6.162987e-01 4.515589e-01 0.000000e+00
6.547483e-01 4.275145e-01 0.000000e+00
6.546960e-01 4.516357e-01 0.000000e+00
6.162987e-01 4.515589e-01 0.000000e+00
6.162832e-01 4.800000e-01 0.000000e+00
6.546960e-01 4.516357e-01 0.000000e+00
6.546811e-01 4.800000e-01 0.000000e+00
6.547483e-01 4.275145e-01 0.000000e+00
6.546960e-01 4.516357e-01 0.000000e+00
6.931236e-01 4.276642e-01 0.000000e+00
6.930702e-01 4.517168e-01 0.000000e+00
6.546960e-01 4.516357e-01 0.000000e+00
6.546811e-01 4.800000e-01 0.000000e+00
6.930702e-01 4.517168e-01 0.000000e+00
6.930563e-01 4.800000e-01 0.000000e+00
6.931236e-01 4.276642e-01 0.000000e+00
6.930702e-01 4.517168e-01 0.000000e+00
7.314737e-01 4.278217e-01 0.000000e+00
7.314198e-01 4.518023e-01 0.000000e+00
6.930702e-01 4.517168e-01 0.000000e+00
6.930563e-01 4.800000e-01 0.000000e+00
7.314198e-01 4.518023e-01 0.000000e+00
7.314073e-01 4.800000e-01 0.000000e+00
7.314737e-01 4.278217e-01 0.000000e+00
7.314198e-01 4.518023e-01 0.000000e+00
7.697966e-01 4.279870e-01 0.000000e+00
7.697430e-01 4.518921e-01 0.000000e+00
7.314198e-01 4.518023e-01 0.000000e+00
7.314073e-01 4.800000e-01 0.000000e+00
7.697430e-01 4.518921e-01 0.000000e+00
7.697327e-01 4.800000e-01 0.000000e+00
7.697966e-01 4.279870e-01 0.000000e+00
7.697430e-01 4.518921e-01 0.000000e+00
8.080906e-01 4.281599e-01 0.000000e+00
8.080380e-01 4.519860e-01 0.000000e+00
7.697430e-01 4.518921e-01 0.000000e+00
7.697327e-01 4.800000e-01 0.000000e+00
8.080380e-01 4.519860e-01 0.000000e+00
8.080307e-01 4.800000e-01 0.000000e+00
8.080906e-01 4.281599e-01 0.000000e+00
8.080380e-01 4.519860e-01 0.000000e+00
8.463537e-01 4.283405e-01 0.000000e+00
8.463032e-01 4.520842e-01 0.000000e+00
8.080380e-01 4.519860e-01 0.000000e+00
8.080307e-01 4.800000e-01 0.000000e+00
8.463032e-01 4.520842e-01 0.000000e+00
8.462999e-01 4.800000e-01 0.000000e+00
8.463537e-01 4.283405e-01 0.000000e+00
8.463032e-01 4.520842e-01 0.000000e+00
8.845836e-01 4.285285e-01 0.000000e+00
8.845365e-01 4.521866e-01 0.000000e+00
8.463032e-01 4.520842e-01 0.000000e+00
8.462999e-01 4.800000e-01 0.000000e+00
8.845365e-01 4.521866e-01 0.000000e+00
8.845386e-01 4.800000e-01 0.000000e+00
8.845836e-01 4.285285e-01 0.000000e+00
8.845365e-01 4.521866e-01 0.000000e+00
9.227783e-01 4.287238e-01 0.000000e+00
9.227363e-01 4.522931e-01 0.000000e+00
8.845365e-01 4.521866e-01 0.000000e+00
8.845386e-01 4.800000e-01 0.000000e+00
9.227363e-01 4.522931e-01 0.000000e+00
9.227453e-01 4.800000e-01 0.000000e+00
9.227783e-01 4.287238e-01 0.000000e+00
9.227363e-01 4.522931e-01 0.000000e+00
9.609352e-01 4.289264e-01 0.000000e+00
9.609004e-01 4.524038e-01 0.000000e+00
9.227363e-01 4.522931e-01 0.000000e+00
9.227453e-01 4.800000e-01 0.000000e+00
9.609004e-01 4.524038e-01 0.000000e+00
9.609185e-01 4.800000e-01 0.000000e+00
9.609352e-01 4.289264e-01 0.000000e+00
9.609004e-01 4.524038e-01 0.000000e+00
9.990518e-01 4.291361e-01 0.000000e+00
9.990270e-01 4.525186e-01 0.000000e+00
9.609004e-01 4.524038e-01 0.000000e+00
9.609185e-01 4.800000e-01 0.000000e+00
9.990270e-01 4.525186e-01 0.000000e+00
9.990568e-01 4.800000e-01 0.000000e+00
9.990518e-01 4.291361e-01 0.000000e+00
9.990270e-01 4.525186e-01 0.000000e+00
1.037125e+00 4.293529e-01 0.000000e+00
1.037114e+00 4.526377e-01 0.000000e+00
9.990270e-01 4.525186e-01 0.000000e+00
9.990568e-01 4.800000e-01 0.000000e+00
1.037114e+00 4.526377e-01 0.000000e+00
1.037159e+00 4.800000e-01 0.000000e+00
1.037125e+00 4.293529e-01 0.000000e+00
1.037114e+00 4.526377e-01 0.000000e+00
1.075153e+00 4.295766e-01 0.000000e+00
1.075159e+00 4.527610e-01 0.000000e+00
1.037114e+00 4.526377e-01 0.000000e+00
1.037159e+00 4.800000e-01 0.000000e+00
1.075159e+00 4.527610e-01 0.000000e+00
1.075224e+00 4.800000e-01 0.000000e+00
1.075153e+00 4.295766e-01 0.000000e+00
1.075159e+00 4.527610e-01 0.000000e+00
1.113131e+00 4.298073e-01 0.000000e+00
1.113161e+00 4.528886e-01 0.000000e+00
1.075159e+00 4.527610e-01 0.000000e+00
1.075224e+00 4.800000e-01 0.000000e+00
1.113161e+00 4.528886e-01 0.000000e+00
1.113250e+00 4.800000e-01 0.000000e+00
1.113131e+00 4.298073e-01 0.000000e+00
1.113161e+00 4.528886e-01 0.000000e+00
1.151056e+00 4.300448e-01 0.000000e+00
1.151117e+00 4.530208e-01 0.000000e+00
1.113161e+00 4.528886e-01 0.000000e+00
1.113250e+00 4.800000e-01 0.000000e+00
1.151117e+00 4.530208e-01 0.000000e+00
1.151238e+00 4.800000e-01 0.000000e+00
1.151056e+00 4.300448e-01 0.000000e+00
1.151117e+00 4.530208e-01 0.000000e+00
1.188924e+00 4.302890e-01 0.000000e+00
1.189024e+00 4.531578e-01 0.000000e+00
1.151117e+00 4.530208e-01 0.000000e+00
1.151238e+00 4.800000e-01 0.000000e+00
1.189024e+00 4.531578e-01 0.000000e+00
1.189188e+00 4.800000e-01 0.000000e+00
1.188924e+00 4.302890e-01 0.000000e+00
[...]
<PointData>
<DataArray type="Float32" Name="V1" format="ascii">
2.096255e+02
8.216816e+01
2.097043e+02
8.224689e+01
8.531040e+01
2.165566e+01
8.534310e+01
2.168835e+01
2.097325e+02
8.219936e+01
2.099259e+02
8.239277e+01
8.537087e+01
2.167602e+01
8.546149e+01
2.176664e+01
2.099971e+02
8.230964e+01
2.103146e+02
8.262707e+01
8.551416e+01
2.173873e+01
8.566959e+01
2.189417e+01
2.104256e+02
8.250613e+01
2.108683e+02
8.294879e+01
8.574616e+01
2.184972e+01
8.596612e+01
2.206967e+01
2.110189e+02
8.278923e+01
2.115884e+02
8.335872e+01
8.606721e+01
2.200896e+01
8.635198e+01
2.229373e+01
2.117786e+02
8.315977e+01
2.124766e+02
8.385782e+01
8.647806e+01
2.221680e+01
8.682827e+01
2.256701e+01
2.127065e+02
8.361881e+01
2.135351e+02
8.444736e+01
8.697975e+01
2.247378e+01
8.739626e+01
2.289029e+01
2.138052e+02
8.416760e+01
2.147665e+02
8.512886e+01
8.757358e+01
2.278059e+01
8.805750e+01
2.326451e+01
2.150774e+02
8.480760e+01
2.161740e+02
8.590413e+01
8.826113e+01
2.313808e+01
8.881374e+01
2.369068e+01
2.165264e+02
8.554056e+01
2.177611e+02
8.677524e+01
8.904423e+01
2.354726e+01
8.966704e+01
2.417007e+01
2.181558e+02
8.636844e+01
2.195319e+02
8.774456e+01
8.992499e+01
2.400927e+01
9.061974e+01
2.470403e+01
2.199698e+02
8.729353e+01
2.214910e+02
8.881473e+01
9.090580e+01
2.452547e+01
9.167446e+01
2.529413e+01
2.219732e+02
8.831835e+01
2.236436e+02
8.998872e+01
9.198937e+01
2.509736e+01
9.283414e+01
2.594213e+01
2.241712e+02
8.944578e+01
2.259952e+02
9.126982e+01
9.317872e+01
2.572663e+01
9.410207e+01
2.664999e+01
2.265694e+02
9.067900e+01
2.285521e+02
9.266167e+01
9.447719e+01
2.641521e+01
9.548186e+01
2.741988e+01
2.291743e+02
9.202152e+01
2.313210e+02
9.416828e+01
9.588851e+01
2.716520e+01
9.697756e+01
2.825425e+01
2.319927e+02
9.347724e+01
2.343095e+02
9.579404e+01
9.741679e+01
2.797899e+01
9.859356e+01
2.915576e+01
2.350321e+02
9.505047e+01
2.375254e+02
9.754379e+01
9.906652e+01
2.885921e+01
1.003348e+02
3.012747e+01
2.383007e+02
9.674592e+01
2.409776e+02
9.942278e+01
1.008427e+02
2.980880e+01
1.022066e+02
3.117266e+01
2.418072e+02
9.856878e+01
2.446753e+02
1.014368e+02
1.027507e+02
3.083104e+01
1.042148e+02
3.229510e+01
2.455610e+02
1.005247e+02
2.486285e+02
1.035922e+02
1.047967e+02
3.192958e+01
1.063660e+02
3.349890e+01
2.495722e+02
1.026201e+02
2.528478e+02
1.058958e+02
1.069870e+02
3.310852e+01
1.086672e+02
3.478875e+01
2.538512e+02
1.048617e+02
2.573446e+02
1.083550e+02
1.093290e+02
3.437245e+01
1.111264e+02
3.616989e+01
2.584094e+02
1.072570e+02
2.621306e+02
1.109782e+02
1.118306e+02
3.572657e+01
1.137523e+02
3.764827e+01
2.632583e+02
1.098145e+02
2.672181e+02
1.137743e+02
1.145004e+02
3.717676e+01
1.165543e+02
3.923068e+01
2.684100e+02
1.125433e+02
2.726197e+02
1.167530e+02
1.173482e+02
3.872979e+01
1.195433e+02
4.092489e+01
2.738766e+02
1.154535e+02
2.783481e+02
1.199250e+02
1.203844e+02
4.039337e+01
1.227310e+02
4.273991e+01
2.796701e+02
1.185564e+02
2.844157e+02
1.233020e+02
1.236211e+02
4.217654e+01
1.261308e+02
4.468631e+01
2.858020e+02
1.218647e+02
2.908342e+02
1.268969e+02
1.270712e+02
4.408986e+01
1.297578e+02
4.677648e+01
2.922825e+02
1.253923e+02
2.976140e+02
1.307238e+02
1.307495e+02
4.614582e+01
1.336290e+02
4.902527e+01
2.991202e+02
1.291553e+02
3.047630e+02
1.347981e+02
1.346726e+02
4.835938e+01
1.377638e+02
5.145056e+01
3.063203e+02
1.331717e+02
3.122857e+02
1.391370e+02
1.388592e+02
5.074867e+01
1.421848e+02
5.407419e+01
3.138836e+02
1.374623e+02
3.201808e+02
1.437595e+02
1.433308e+02
5.333588e+01
1.469181e+02
5.692312e+01
3.218038e+02
1.420509e+02
3.284394e+02
1.486865e+02
1.481120e+02
5.614847e+01
1.519946e+02
6.003105e+01
3.300652e+02
1.469655e+02
3.370410e+02
1.539412e+02
1.532312e+02
5.922099e+01
1.574509e+02
6.344067e+01
3.386386e+02
1.522387e+02
3.459491e+02
1.595492e+02
1.587217e+02
6.259735e+01
1.633311e+02
6.720672e+01
3.474758e+02
1.579094e+02
3.551051e+02
1.655387e+02
1.646222e+02
6.633421e+01
1.696884e+02
7.140045e+01
3.565034e+02
1.640231e+02
3.644202e+02
1.719400e+02
1.709780e+02
7.050598e+01
1.765880e+02
7.611598e+01
3.656137e+02
1.706338e+02
3.737647e+02
1.787847e+02
1.778406e+02
7.521228e+01
1.841085e+02
8.148015e+01
3.746539e+02
1.778042e+02
3.829552e+02
1.861054e+02
1.852661e+02
8.059016e+01
1.923443e+02
8.766828e+01
3.834105e+02
1.856078e+02
3.917391e+02
1.939365e+02
1.933044e+02
8.683578e+01
2.014015e+02
9.493281e+01
3.915831e+02
1.941398e+02
3.997767e+02
2.023334e+02
2.019666e+02
9.424907e+01
2.113830e+02
1.036655e+02
3.987179e+02
2.035745e+02
4.066228e+02
2.114794e+02
2.111213e+02
1.033548e+02
2.223499e+02
1.145834e+02
4.039514e+02
2.144575e+02
4.117653e+02
2.222713e+02
2.202744e+02
1.153253e+02
2.343551e+02
1.294060e+02
4.054753e+02
2.288161e+02
4.149446e+02
2.382854e+02
2.275443e+02
1.355302e+02
2.469090e+02
1.548948e+02
4.086984e+02
2.452508e+02
4.175885e+02
2.541408e+02
2.424398e+02
1.583896e+02
2.547783e+02
1.707281e+02
4.153793e+02
2.562770e+02
4.256986e+02
2.665963e+02
2.542961e+02
1.708758e+02
2.656029e+02
1.821826e+02
4.256842e+02
2.664153e+02
4.372321e+02
2.779632e+02
2.660604e+02
1.818147e+02
2.767194e+02
1.924737e+02
4.384303e+02
2.766121e+02
4.507872e+02
2.889690e+02
2.778616e+02
1.916850e+02
2.879102e+02
2.017336e+02
4.526951e+02
2.868791e+02
4.654602e+02
2.996441e+02
2.894526e+02
2.006795e+02
2.988955e+02
2.101224e+02
4.678003e+02
2.970889e+02
4.806280e+02
3.099166e+02
3.006941e+02
2.088998e+02
3.095264e+02
2.177320e+02
4.832127e+02
3.070896e+02
4.958095e+02
3.196864e+02
3.114679e+02
2.164162e+02
3.196774e+02
2.246257e+02
4.985017e+02
3.167362e+02
5.106217e+02
3.288563e+02
3.216719e+02
2.232771e+02
3.292422e+02
2.308474e+02
5.133153e+02
3.259010e+02
5.247548e+02
3.373404e+02
3.312175e+02
2.295151e+02
3.381302e+02
2.364278e+02
5.273652e+02
3.344749e+02
5.379568e+02
3.450665e+02
3.400286e+02
2.351506e+02
3.462654e+02
2.413873e+02
5.404158e+02
3.423671e+02
5.500234e+02
3.519747e+02
3.480411e+02
2.401959e+02
3.535847e+02
2.457395e+02
5.522758e+02
3.495028e+02
5.607895e+02
3.580166e+02
3.552015e+02
2.446575e+02
3.600365e+02
2.494925e+02
5.627911e+02
3.558210e+02
5.701237e+02
3.631536e+02
3.614660e+02
2.485382e+02
3.655791e+02
2.526512e+02
5.718393e+02
3.612726e+02
5.779224e+02
3.673557e+02
3.667993e+02
2.518384e+02
3.701793e+02
2.552184e+02
5.793248e+02
3.658189e+02
5.841061e+02
3.706001e+02
3.711735e+02
2.545574e+02
3.738114e+02
2.571953e+02
5.851748e+02
3.694296e+02
5.886159e+02
3.728707e+02
3.745671e+02
2.566936e+02
3.764561e+02
2.585826e+02
5.893362e+02
3.720820e+02
5.914110e+02
3.741568e+02
3.769646e+02
2.582454e+02
3.780999e+02
2.593807e+02
5.917735e+02
3.737601e+02
5.924668e+02
3.744533e+02
3.783555e+02
2.592114e+02
3.787342e+02
2.595901e+02
</DataArray>
<DataArray type="Float32" Name="V2" format="ascii">
4.262511e-01
4.509539e-01
4.270885e-01
4.517774e-01
4.509539e-01
4.800000e-01
4.517774e-01
4.808124e-01
4.270885e-01
4.517774e-01
4.295884e-01
4.542478e-01
4.517774e-01
4.808124e-01
4.542478e-01
4.832484e-01
4.295884e-01
4.542478e-01
4.337507e-01
4.583612e-01
4.542478e-01
4.832484e-01
4.583612e-01
4.873046e-01
4.337507e-01
4.583612e-01
4.395697e-01
4.641117e-01
4.583612e-01
4.873046e-01
4.641117e-01
4.929752e-01
4.395697e-01
4.641117e-01
4.470369e-01
4.714911e-01
4.641117e-01
4.929752e-01
4.714911e-01
5.002519e-01
4.470369e-01
4.714911e-01
4.561416e-01
4.804888e-01
4.714911e-01
5.002519e-01
4.804888e-01
5.091244e-01
4.561416e-01
4.804888e-01
4.668708e-01
4.910919e-01
4.804888e-01
5.091244e-01
4.910919e-01
5.195800e-01
4.668708e-01
4.910919e-01
4.792090e-01
5.032851e-01
4.910919e-01
5.195800e-01
5.032851e-01
5.316035e-01
4.792090e-01
5.032851e-01
4.931385e-01
5.170508e-01
5.032851e-01
5.316035e-01
5.170508e-01
5.451778e-01
4.931385e-01
5.170508e-01
5.086391e-01
5.323693e-01
5.170508e-01
5.451778e-01
5.323693e-01
5.602832e-01
5.086391e-01
5.323693e-01
5.256885e-01
5.492184e-01
5.323693e-01
5.602832e-01
5.492184e-01
5.768979e-01
5.256885e-01
5.492184e-01
5.442621e-01
5.675737e-01
5.492184e-01
5.768979e-01
5.675737e-01
5.949980e-01
5.442621e-01
5.675737e-01
5.643328e-01
5.874087e-01
5.675737e-01
5.949980e-01
5.874087e-01
6.145571e-01
5.643328e-01
5.874087e-01
5.858715e-01
6.086945e-01
5.874087e-01
6.145571e-01
6.086945e-01
6.355469e-01
5.858715e-01
6.086945e-01
6.088470e-01
6.314002e-01
6.086945e-01
6.355469e-01
6.314002e-01
6.579369e-01
6.088470e-01
6.314002e-01
6.332255e-01
6.554926e-01
6.314002e-01
6.579369e-01
6.554926e-01
6.816944e-01
6.332255e-01
6.554926e-01
6.589715e-01
6.809366e-01
6.554926e-01
6.816944e-01
6.809366e-01
7.067847e-01
6.589715e-01
6.809366e-01
6.860472e-01
7.076947e-01
6.809366e-01
7.067847e-01
7.076947e-01
7.331709e-01
6.860472e-01
7.076947e-01
7.144125e-01
7.357277e-01
7.076947e-01
7.331709e-01
7.357277e-01
7.608143e-01
7.144125e-01
7.357277e-01
7.440257e-01
7.649940e-01
7.357277e-01
7.608143e-01
7.649940e-01
7.896741e-01
7.440257e-01
7.649940e-01
7.748427e-01
7.954504e-01
7.649940e-01
7.896741e-01
7.954504e-01
8.197076e-01
7.748427e-01
7.954504e-01
8.068176e-01
8.270516e-01
7.954504e-01
8.197076e-01
8.270516e-01
8.508702e-01
8.068176e-01
8.270516e-01
8.399026e-01
8.597505e-01
8.270516e-01
8.508702e-01
8.597505e-01
8.831156e-01
8.399026e-01
8.597505e-01
8.740477e-01
8.934980e-01
8.597505e-01
8.831156e-01
8.934980e-01
9.163956e-01
8.740477e-01
8.934980e-01
9.092015e-01
9.282434e-01
8.934980e-01
9.163956e-01
9.282434e-01
9.506604e-01
9.092015e-01
9.282434e-01
9.453103e-01
9.639342e-01
9.282434e-01
9.506604e-01
9.639342e-01
9.858585e-01
9.453103e-01
9.639342e-01
9.823188e-01
1.000516e+00
9.639342e-01
9.858585e-01
1.000516e+00
1.021937e+00
9.823188e-01
1.000516e+00
1.020170e+00
1.037934e+00
1.000516e+00
1.021937e+00
1.037934e+00
1.058842e+00
1.020170e+00
1.037934e+00
1.058804e+00
1.076130e+00
1.037934e+00
1.058842e+00
1.076130e+00
1.096517e+00
1.058804e+00
1.076130e+00
1.098162e+00
1.115046e+00
1.076130e+00
1.096517e+00
1.115046e+00
1.134906e+00
1.098162e+00
1.115046e+00
1.138180e+00
1.154621e+00
1.115046e+00
1.134906e+00
1.154621e+00
1.173951e+00
1.138180e+00
1.154621e+00
1.178793e+00
1.194795e+00
1.154621e+00
1.173951e+00
1.194795e+00
1.213593e+00
1.178793e+00
1.194795e+00
1.219936e+00
1.235504e+00
1.194795e+00
1.213593e+00
1.235504e+00
1.253775e+00
1.219936e+00
1.235504e+00
1.261540e+00
1.276686e+00
1.235504e+00
1.253775e+00
1.276686e+00
1.294436e+00
1.261540e+00
1.276686e+00
1.303533e+00
1.318275e+00
1.276686e+00
1.294436e+00
1.318275e+00
1.335518e+00
1.303533e+00
1.318275e+00
1.345843e+00
1.360208e+00
1.318275e+00
1.335518e+00
1.360208e+00
1.376964e+00
1.345843e+00
1.360208e+00
1.388392e+00
1.402416e+00
1.360208e+00
1.376964e+00
1.402416e+00
1.418718e+00
1.388392e+00
1.402416e+00
1.431100e+00
1.444835e+00
1.402416e+00
1.418718e+00
1.444835e+00
1.460728e+00
1.431100e+00
1.444835e+00
1.473882e+00
1.487397e+00
1.444835e+00
1.460728e+00
1.487397e+00
1.502943e+00
1.473882e+00
1.487397e+00
1.516646e+00
1.530034e+00
1.487397e+00
1.502943e+00
1.530034e+00
1.545323e+00
1.516646e+00
1.530034e+00
1.559295e+00
1.572674e+00
1.530034e+00
1.545323e+00
1.572674e+00
1.587834e+00
1.559295e+00
1.572674e+00
1.601714e+00
1.615242e+00
1.572674e+00
1.587834e+00
1.615242e+00
1.630462e+00
1.601714e+00
1.615242e+00
1.643759e+00
1.657636e+00
1.615242e+00
1.630462e+00
1.657636e+00
1.673206e+00
1.643759e+00
1.657636e+00
1.685207e+00
1.699659e+00
1.657636e+00
1.673206e+00
1.699659e+00
1.716026e+00
1.685207e+00
1.699659e+00
1.725694e+00
1.740700e+00
1.699659e+00
1.716026e+00
1.740700e+00
1.757754e+00
1.725694e+00
1.740700e+00
1.764009e+00
1.779224e+00
1.740700e+00
1.757754e+00
1.779224e+00
1.796351e+00
1.764009e+00
1.779224e+00
1.799642e+00
1.815251e+00
1.779224e+00
1.796351e+00
1.815251e+00
1.832820e+00
1.799642e+00
1.815251e+00
1.832620e+00
1.848778e+00
1.815251e+00
1.832820e+00
1.848778e+00
1.866911e+00
1.832620e+00
1.848778e+00
1.863025e+00
1.879780e+00
1.848778e+00
1.866911e+00
1.879780e+00
1.898530e+00
1.863025e+00
1.879780e+00
1.890927e+00
1.908271e+00
1.879780e+00
1.898530e+00
1.908271e+00
1.927638e+00
1.890927e+00
1.908271e+00
1.916398e+00
1.934292e+00
1.908271e+00
1.927638e+00
1.934292e+00
1.954247e+00
1.916398e+00
1.934292e+00
1.939512e+00
1.957902e+00
1.934292e+00
1.954247e+00
1.957902e+00
1.978395e+00
1.939512e+00
1.957902e+00
1.960341e+00
1.979168e+00
1.957902e+00
1.978395e+00
1.979168e+00
2.000141e+00
1.960341e+00
1.979168e+00
1.978956e+00
1.998160e+00
1.979168e+00
2.000141e+00
1.998160e+00
2.019553e+00
1.978956e+00
1.998160e+00
1.995424e+00
2.014948e+00
1.998160e+00
2.019553e+00
2.014948e+00
2.036701e+00
1.995424e+00
2.014948e+00
2.009806e+00
2.029597e+00
2.014948e+00
2.036701e+00
2.029597e+00
2.051653e+00
2.009806e+00
2.029597e+00
2.022157e+00
2.042166e+00
2.029597e+00
2.051653e+00
2.042166e+00
2.064473e+00
2.022157e+00
2.042166e+00
2.032525e+00
2.052710e+00
2.042166e+00
2.064473e+00
2.052710e+00
2.075220e+00
2.032525e+00
2.052710e+00
2.040952e+00
2.061273e+00
2.052710e+00
2.075220e+00
2.061273e+00
2.083943e+00
2.040952e+00
2.061273e+00
2.047471e+00
2.067894e+00
2.061273e+00
2.083943e+00
2.067894e+00
2.090685e+00
2.047471e+00
2.067894e+00
2.052108e+00
2.072603e+00
2.067894e+00
2.090685e+00
2.072603e+00
2.095476e+00
2.052108e+00
2.072603e+00
2.054883e+00
2.075419e+00
2.072603e+00
2.095476e+00
2.075419e+00
2.098342e+00
2.054883e+00
2.075419e+00
2.055807e+00
2.076357e+00
2.075419e+00
2.098342e+00
2.076357e+00
2.099296e+00
</DataArray>
<DataArray type="Float32" Name="V3" format="ascii">
0.000000e+00
0.000000e+00
2.793681e-02
2.731742e-02
0.000000e+00
0.000000e+00
2.731742e-02
2.659195e-02
2.793681e-02
2.731742e-02
5.580661e-02
5.456845e-02
2.731742e-02
2.659195e-02
5.456845e-02
5.311821e-02
5.580661e-02
5.456845e-02
8.354203e-02
8.168652e-02
5.456845e-02
5.311821e-02
8.168652e-02
7.951319e-02
8.354203e-02
8.168652e-02
1.110761e-01
1.086054e-01
8.168652e-02
7.951319e-02
1.086054e-01
1.057114e-01
1.110761e-01
1.086054e-01
1.383421e-01
1.352589e-01
1.086054e-01
1.057114e-01
1.352589e-01
1.316476e-01
1.383421e-01
1.352589e-01
1.652735e-01
1.615814e-01
1.352589e-01
1.316476e-01
1.615814e-01
1.572568e-01
1.652735e-01
1.615814e-01
1.918044e-01
1.875076e-01
1.615814e-01
1.572568e-01
1.875076e-01
1.824745e-01
1.918044e-01
1.875076e-01
2.178691e-01
2.129724e-01
1.875076e-01
1.824745e-01
2.129724e-01
2.072366e-01
2.178691e-01
2.129724e-01
2.434025e-01
2.379115e-01
2.129724e-01
2.072366e-01
2.379115e-01
2.314794e-01
2.434025e-01
2.379115e-01
2.683402e-01
2.622611e-01
2.379115e-01
2.314794e-01
2.622611e-01
2.551400e-01
2.683402e-01
2.622611e-01
2.926186e-01
2.859582e-01
2.622611e-01
2.551400e-01
2.859582e-01
2.781560e-01
2.926186e-01
2.859582e-01
3.161745e-01
3.089403e-01
2.859582e-01
2.781560e-01
3.089403e-01
3.004658e-01
3.161745e-01
3.089403e-01
3.389458e-01
3.311461e-01
3.089403e-01
3.004658e-01
3.311461e-01
3.220087e-01
3.389458e-01
3.311461e-01
3.608713e-01
3.525147e-01
3.311461e-01
3.220087e-01
3.525147e-01
3.427247e-01
3.608713e-01
3.525147e-01
3.818907e-01
3.729867e-01
3.525147e-01
3.427247e-01
3.729867e-01
3.625550e-01
3.818907e-01
3.729867e-01
4.019449e-01
3.925034e-01
3.729867e-01
3.625550e-01
3.925034e-01
3.814416e-01
4.019449e-01
3.925034e-01
4.209757e-01
4.110073e-01
3.925034e-01
3.814416e-01
4.110073e-01
3.993278e-01
4.209757e-01
4.110073e-01
4.389263e-01
4.284421e-01
4.110073e-01
3.993278e-01
4.284421e-01
4.161579e-01
4.389263e-01
4.284421e-01
4.557410e-01
4.447528e-01
4.284421e-01
4.161579e-01
4.447528e-01
4.318777e-01
4.557410e-01
4.447528e-01
4.713655e-01
4.598857e-01
4.447528e-01
4.318777e-01
4.598857e-01
4.464339e-01
4.713655e-01
4.598857e-01
4.857471e-01
4.737884e-01
4.598857e-01
4.464339e-01
4.737884e-01
4.597751e-01
4.857471e-01
4.737884e-01
4.988341e-01
4.864101e-01
4.737884e-01
4.597751e-01
4.864101e-01
4.718511e-01
4.988341e-01
4.864101e-01
5.105767e-01
4.977015e-01
4.864101e-01
4.718511e-01
4.977015e-01
4.826131e-01
5.105767e-01
4.977015e-01
5.209264e-01
5.076147e-01
4.977015e-01
4.826131e-01
5.076147e-01
4.920143e-01
5.209264e-01
5.076147e-01
5.298367e-01
5.161037e-01
5.076147e-01
4.920143e-01
5.161037e-01
5.000093e-01
5.298367e-01
5.161037e-01
5.372624e-01
5.231242e-01
5.161037e-01
5.000093e-01
5.231242e-01
5.065546e-01
5.372624e-01
5.231242e-01
5.431602e-01
5.286334e-01
5.231242e-01
5.065546e-01
5.286334e-01
5.116084e-01
5.431602e-01
5.286334e-01
5.474884e-01
5.325907e-01
5.286334e-01
5.116084e-01
5.325907e-01
5.151311e-01
5.474884e-01
5.325907e-01
5.502074e-01
5.349571e-01
5.325907e-01
5.151311e-01
5.349571e-01
5.170850e-01
5.502074e-01
5.349571e-01
5.512790e-01
5.356957e-01
5.349571e-01
5.170850e-01
5.356957e-01
5.174346e-01
5.512790e-01
5.356957e-01
5.506673e-01
5.347716e-01
5.356957e-01
5.174346e-01
5.347716e-01
5.161464e-01
5.506673e-01
5.347716e-01
5.483377e-01
5.321518e-01
5.347716e-01
5.161464e-01
5.321518e-01
5.131897e-01
5.483377e-01
5.321518e-01
5.442579e-01
5.278055e-01
5.321518e-01
5.131897e-01
5.278055e-01
5.085360e-01
5.442579e-01
5.278055e-01
5.383971e-01
5.217040e-01
5.278055e-01
5.085360e-01
5.217040e-01
5.021595e-01
5.383971e-01
5.217040e-01
5.307262e-01
5.138208e-01
5.217040e-01
5.021595e-01
5.138208e-01
4.940372e-01
5.307262e-01
5.138208e-01
5.212181e-01
5.041313e-01
5.138208e-01
4.940372e-01
5.041313e-01
4.841493e-01
5.212181e-01
5.041313e-01
5.098469e-01
4.926133e-01
5.041313e-01
4.841493e-01
4.926133e-01
4.724790e-01
5.098469e-01
4.926133e-01
4.965884e-01
4.792465e-01
4.926133e-01
4.724790e-01
4.792465e-01
4.590134e-01
4.965884e-01
4.792465e-01
4.814198e-01
4.640127e-01
4.792465e-01
4.590134e-01
4.640127e-01
4.437433e-01
4.814198e-01
4.640127e-01
4.643197e-01
4.468957e-01
4.640127e-01
4.437433e-01
4.468957e-01
4.266642e-01
4.643197e-01
4.468957e-01
4.452685e-01
4.278813e-01
4.468957e-01
4.266642e-01
4.278813e-01
4.077773e-01
4.452685e-01
4.278813e-01
4.242503e-01
4.069590e-01
4.278813e-01
4.077773e-01
4.069590e-01
3.870913e-01
4.242503e-01
4.069590e-01
4.012621e-01
3.841305e-01
4.069590e-01
3.870913e-01
3.841305e-01
3.646202e-01
4.012621e-01
3.841305e-01
3.763618e-01
3.594457e-01
3.841305e-01
3.646202e-01
3.594457e-01
3.403517e-01
3.763618e-01
3.594457e-01
3.499682e-01
3.332960e-01
3.594457e-01
3.403517e-01
3.332960e-01
3.141445e-01
3.499682e-01
3.332960e-01
3.242816e-01
3.082117e-01
3.332960e-01
3.141445e-01
3.082117e-01
2.899357e-01
3.242816e-01
3.082117e-01
3.000925e-01
2.847526e-01
3.082117e-01
2.899357e-01
2.847526e-01
2.674939e-01
3.000925e-01
2.847526e-01
2.772646e-01
2.627616e-01
2.847526e-01
2.674939e-01
2.627616e-01
2.465652e-01
2.772646e-01
2.627616e-01
2.555620e-01
2.419799e-01
2.627616e-01
2.465652e-01
2.419799e-01
2.268867e-01
2.555620e-01
2.419799e-01
2.347912e-01
2.221889e-01
2.419799e-01
2.268867e-01
2.221889e-01
2.082291e-01
2.347912e-01
2.221889e-01
2.147834e-01
2.031972e-01
2.221889e-01
2.082291e-01
2.031972e-01
1.903891e-01
2.147834e-01
2.031972e-01
1.953961e-01
1.848434e-01
2.031972e-01
1.903891e-01
1.848434e-01
1.731931e-01
1.953961e-01
1.848434e-01
1.765095e-01
1.669933e-01
1.848434e-01
1.731931e-01
1.669933e-01
1.564959e-01
1.765095e-01
1.669933e-01
1.580241e-01
1.495368e-01
1.669933e-01
1.564959e-01
1.495368e-01
1.401789e-01
1.580241e-01
1.495368e-01
1.398577e-01
1.323846e-01
1.495368e-01
1.401789e-01
1.323846e-01
1.241471e-01
1.398577e-01
1.323846e-01
1.219429e-01
1.154651e-01
1.323846e-01
1.241471e-01
1.154651e-01
1.083254e-01
1.219429e-01
1.154651e-01
1.042245e-01
9.872123e-02
1.154651e-01
1.083254e-01
9.872123e-02
9.265577e-02
1.042245e-01
9.872123e-02
8.665734e-02
8.210811e-02
9.872123e-02
9.265577e-02
8.210811e-02
7.709390e-02
8.665734e-02
8.210811e-02
6.920467e-02
6.559046e-02
8.210811e-02
7.709390e-02
6.559046e-02
6.160657e-02
6.920467e-02
6.559046e-02
5.183616e-02
4.914067e-02
6.559046e-02
6.160657e-02
4.914067e-02
4.616926e-02
5.183616e-02
4.914067e-02
3.452656e-02
3.273696e-02
4.914067e-02
4.616926e-02
3.273696e-02
3.076404e-02
3.452656e-02
3.273696e-02
1.725425e-02
1.636170e-02
3.273696e-02
3.076404e-02
1.636170e-02
1.537767e-02
1.725425e-02
1.636170e-02
0.000000e+00
0.000000e+00
1.636170e-02
1.537767e-02
0.000000e+00
0.000000e+00
</DataArray>
<DataArray type="Float32" Name="V4" format="ascii">
8.500000e-01
9.250000e-01
8.500000e-01
9.250000e-01
9.250000e-01
1.000000e+00