<?xml version="1.0"?>
<VTKFile type="UnstructuredGrid" version="0.1" byte_order="LittleEndian" compressor="vtkZLibDataCompressor">
<UnstructuredGrid>
<Piece NumberOfPoints="504" NumberOfCells="126">
<Points>
<DataArray type="Float32" NumberOfComponents="3" format="ascii">
0.000000e+00 5.387566e-01 0.000000e+00
0.000000e+00 5.760732e-01 0.000000e+00
3.139046e-02 5.387657e-01 0.000000e+00
3.137231e-02 5.760772e-01 0.000000e+00
0.000000e+00 5.760732e-01 0.000000e+00
0.000000e+00 6.200000e-01 0.000000e+00
3.137231e-02 5.760772e-01 0.000000e+00
3.136157e-02 6.200000e-01 0.000000e+00
3.139046e-02 5.387657e-01 0.000000e+00
3.137231e-02 5.760772e-01 0.000000e+00
6.278029e-02 5.387873e-01 0.000000e+00
6.274393e-02 5.760890e-01 0.000000e+00
3.137231e-02 5.760772e-01 0.000000e+00
3.136157e-02 6.200000e-01 0.000000e+00
6.274393e-02 5.760890e-01 0.000000e+00
6.272244e-02 6.200000e-01 0.000000e+00
6.278029e-02 5.387873e-01 0.000000e+00
6.274393e-02 5.760890e-01 0.000000e+00
9.416859e-02 5.388233e-01 0.000000e+00
9.411415e-02 5.761085e-01 0.000000e+00
6.274393e-02 5.760890e-01 0.000000e+00
6.272244e-02 6.200000e-01 0.000000e+00
9.411415e-02 5.761085e-01 0.000000e+00
9.408197e-02 6.200000e-01 0.000000e+00
9.416859e-02 5.388233e-01 0.000000e+00
9.411415e-02 5.761085e-01 0.000000e+00
1.255546e-01 5.388736e-01 0.000000e+00
1.254822e-01 5.761359e-01 0.000000e+00
9.411415e-02 5.761085e-01 0.000000e+00
9.408197e-02 6.200000e-01 0.000000e+00
1.254822e-01 5.761359e-01 0.000000e+00
1.254395e-01 6.200000e-01 0.000000e+00
1.255546e-01 5.388736e-01 0.000000e+00
1.254822e-01 5.761359e-01 0.000000e+00
1.569375e-01 5.389383e-01 0.000000e+00
1.568475e-01 5.761711e-01 0.000000e+00
1.254822e-01 5.761359e-01 0.000000e+00
1.254395e-01 6.200000e-01 0.000000e+00
1.568475e-01 5.761711e-01 0.000000e+00
1.567943e-01 6.200000e-01 0.000000e+00
1.569375e-01 5.389383e-01 0.000000e+00
1.568475e-01 5.761711e-01 0.000000e+00
1.883166e-01 5.390173e-01 0.000000e+00
1.882091e-01 5.762140e-01 0.000000e+00
1.568475e-01 5.761711e-01 0.000000e+00
1.567943e-01 6.200000e-01 0.000000e+00
1.882091e-01 5.762140e-01 0.000000e+00
1.881457e-01 6.200000e-01 0.000000e+00
1.883166e-01 5.390173e-01 0.000000e+00
1.882091e-01 5.762140e-01 0.000000e+00
2.196910e-01 5.391104e-01 0.000000e+00
2.195664e-01 5.762647e-01 0.000000e+00
1.882091e-01 5.762140e-01 0.000000e+00
1.881457e-01 6.200000e-01 0.000000e+00
2.195664e-01 5.762647e-01 0.000000e+00
2.194931e-01 6.200000e-01 0.000000e+00
2.196910e-01 5.391104e-01 0.000000e+00
2.195664e-01 5.762647e-01 0.000000e+00
2.510599e-01 5.392177e-01 0.000000e+00
2.509187e-01 5.763231e-01 0.000000e+00
2.195664e-01 5.762647e-01 0.000000e+00
2.194931e-01 6.200000e-01 0.000000e+00
2.509187e-01 5.763231e-01 0.000000e+00
2.508357e-01 6.200000e-01 0.000000e+00
2.510599e-01 5.392177e-01 0.000000e+00
2.509187e-01 5.763231e-01 0.000000e+00
2.824224e-01 5.393391e-01 0.000000e+00
2.822650e-01 5.763892e-01 0.000000e+00
2.509187e-01 5.763231e-01 0.000000e+00
2.508357e-01 6.200000e-01 0.000000e+00
2.822650e-01 5.763892e-01 0.000000e+00
2.821728e-01 6.200000e-01 0.000000e+00
2.824224e-01 5.393391e-01 0.000000e+00
2.822650e-01 5.763892e-01 0.000000e+00
3.137775e-01 5.394744e-01 0.000000e+00
3.136047e-01 5.764630e-01 0.000000e+00
2.822650e-01 5.763892e-01 0.000000e+00
2.821728e-01 6.200000e-01 0.000000e+00
3.136047e-01 5.764630e-01 0.000000e+00
3.135039e-01 6.200000e-01 0.000000e+00
3.137775e-01 5.394744e-01 0.000000e+00
3.136047e-01 5.764630e-01 0.000000e+00
3.451243e-01 5.396236e-01 0.000000e+00
3.449369e-01 5.765445e-01 0.000000e+00
3.136047e-01 5.764630e-01 0.000000e+00
3.135039e-01 6.200000e-01 0.000000e+00
3.449369e-01 5.765445e-01 0.000000e+00
3.448281e-01 6.200000e-01 0.000000e+00
3.451243e-01 5.396236e-01 0.000000e+00
3.449369e-01 5.765445e-01 0.000000e+00
3.764617e-01 5.397866e-01 0.000000e+00
3.762608e-01 5.766336e-01 0.000000e+00
3.449369e-01 5.765445e-01 0.000000e+00
3.448281e-01 6.200000e-01 0.000000e+00
3.762608e-01 5.766336e-01 0.000000e+00
3.761449e-01 6.200000e-01 0.000000e+00
3.764617e-01 5.397866e-01 0.000000e+00
3.762608e-01 5.766336e-01 0.000000e+00
4.077886e-01 5.399632e-01 0.000000e+00
4.075755e-01 5.767304e-01 0.000000e+00
3.762608e-01 5.766336e-01 0.000000e+00
3.761449e-01 6.200000e-01 0.000000e+00
4.075755e-01 5.767304e-01 0.000000e+00
4.074536e-01 6.200000e-01 0.000000e+00
4.077886e-01 5.399632e-01 0.000000e+00
4.075755e-01 5.767304e-01 0.000000e+00
4.391038e-01 5.401534e-01 0.000000e+00
4.388801e-01 5.768350e-01 0.000000e+00
4.075755e-01 5.767304e-01 0.000000e+00
4.074536e-01 6.200000e-01 0.000000e+00
4.388801e-01 5.768350e-01 0.000000e+00
4.387538e-01 6.200000e-01 0.000000e+00
4.391038e-01 5.401534e-01 0.000000e+00
4.388801e-01 5.768350e-01 0.000000e+00
4.704059e-01 5.403572e-01 0.000000e+00
4.701738e-01 5.769472e-01 0.000000e+00
4.388801e-01 5.768350e-01 0.000000e+00
4.387538e-01 6.200000e-01 0.000000e+00
4.701738e-01 5.769472e-01 0.000000e+00
4.700448e-01 6.200000e-01 0.000000e+00
4.704059e-01 5.403572e-01 0.000000e+00
4.701738e-01 5.769472e-01 0.000000e+00
5.016935e-01 5.405744e-01 0.000000e+00
5.014557e-01 5.770673e-01 0.000000e+00
4.701738e-01 5.769472e-01 0.000000e+00
4.700448e-01 6.200000e-01 0.000000e+00
5.014557e-01 5.770673e-01 0.000000e+00
5.013265e-01 6.200000e-01 0.000000e+00
5.016935e-01 5.405744e-01 0.000000e+00
5.014557e-01 5.770673e-01 0.000000e+00
5.329649e-01 5.408051e-01 0.000000e+00
5.327248e-01 5.771955e-01 0.000000e+00
5.014557e-01 5.770673e-01 0.000000e+00
5.013265e-01 6.200000e-01 0.000000e+00
5.327248e-01 5.771955e-01 0.000000e+00
5.325985e-01 6.200000e-01 0.000000e+00
5.329649e-01 5.408051e-01 0.000000e+00
5.327248e-01 5.771955e-01 0.000000e+00
5.642183e-01 5.410491e-01 0.000000e+00
5.639803e-01 5.773318e-01 0.000000e+00
5.327248e-01 5.771955e-01 0.000000e+00
5.325985e-01 6.200000e-01 0.000000e+00
5.639803e-01 5.773318e-01 0.000000e+00
5.638609e-01 6.200000e-01 0.000000e+00
5.642183e-01 5.410491e-01 0.000000e+00
5.639803e-01 5.773318e-01 0.000000e+00
5.954514e-01 5.413066e-01 0.000000e+00
5.952213e-01 5.774767e-01 0.000000e+00
5.639803e-01 5.773318e-01 0.000000e+00
5.638609e-01 6.200000e-01 0.000000e+00
5.952213e-01 5.774767e-01 0.000000e+00
5.951140e-01 6.200000e-01 0.000000e+00
5.954514e-01 5.413066e-01 0.000000e+00
5.952213e-01 5.774767e-01 0.000000e+00
6.266619e-01 5.415776e-01 0.000000e+00
6.264470e-01 5.776306e-01 0.000000e+00
5.952213e-01 5.774767e-01 0.000000e+00
5.951140e-01 6.200000e-01 0.000000e+00
6.264470e-01 5.776306e-01 0.000000e+00
6.263586e-01 6.200000e-01 0.000000e+00
6.266619e-01 5.415776e-01 0.000000e+00
6.264470e-01 5.776306e-01 0.000000e+00
6.578467e-01 5.418624e-01 0.000000e+00
6.576566e-01 5.777940e-01 0.000000e+00
6.264470e-01 5.776306e-01 0.000000e+00
6.263586e-01 6.200000e-01 0.000000e+00
6.576566e-01 5.777940e-01 0.000000e+00
6.575960e-01 6.200000e-01 0.000000e+00
6.578467e-01 5.418624e-01 0.000000e+00
6.576566e-01 5.777940e-01 0.000000e+00
6.890023e-01 5.421613e-01 0.000000e+00
6.888496e-01 5.779678e-01 0.000000e+00
6.576566e-01 5.777940e-01 0.000000e+00
6.575960e-01 6.200000e-01 0.000000e+00
6.888496e-01 5.779678e-01 0.000000e+00
6.888282e-01 6.200000e-01 0.000000e+00
6.890023e-01 5.421613e-01 0.000000e+00
6.888496e-01 5.779678e-01 0.000000e+00
7.201245e-01 5.424745e-01 0.000000e+00
7.200254e-01 5.781530e-01 0.000000e+00
6.888496e-01 5.779678e-01 0.000000e+00
6.888282e-01 6.200000e-01 0.000000e+00
7.200254e-01 5.781530e-01 0.000000e+00
7.200583e-01 6.200000e-01 0.000000e+00
7.201245e-01 5.424745e-01 0.000000e+00
7.200254e-01 5.781530e-01 0.000000e+00
7.512079e-01 5.428027e-01 0.000000e+00
7.511839e-01 5.783510e-01 0.000000e+00
7.200254e-01 5.781530e-01 0.000000e+00
7.200583e-01 6.200000e-01 0.000000e+00
7.511839e-01 5.783510e-01 0.000000e+00
7.512906e-01 6.200000e-01 0.000000e+00
7.512079e-01 5.428027e-01 0.000000e+00
7.511839e-01 5.783510e-01 0.000000e+00
7.822461e-01 5.431465e-01 0.000000e+00
7.823250e-01 5.785635e-01 0.000000e+00
7.511839e-01 5.783510e-01 0.000000e+00
7.512906e-01 6.200000e-01 0.000000e+00
7.823250e-01 5.785635e-01 0.000000e+00
7.825311e-01 6.200000e-01 0.000000e+00
7.822461e-01 5.431465e-01 0.000000e+00
7.823250e-01 5.785635e-01 0.000000e+00
8.132308e-01 5.435067e-01 0.000000e+00
8.134491e-01 5.787926e-01 0.000000e+00
7.823250e-01 5.785635e-01 0.000000e+00
7.825311e-01 6.200000e-01 0.000000e+00
8.134491e-01 5.787926e-01 0.000000e+00
8.137881e-01 6.200000e-01 0.000000e+00
8.132308e-01 5.435067e-01 0.000000e+00
8.134491e-01 5.787926e-01 0.000000e+00
8.441517e-01 5.438841e-01 0.000000e+00
8.445569e-01 5.790410e-01 0.000000e+00
8.134491e-01 5.787926e-01 0.000000e+00
8.137881e-01 6.200000e-01 0.000000e+00
8.445569e-01 5.790410e-01 0.000000e+00
8.450725e-01 6.200000e-01 0.000000e+00
8.441517e-01 5.438841e-01 0.000000e+00
8.445569e-01 5.790410e-01 0.000000e+00
8.749953e-01 5.442793e-01 0.000000e+00
8.756496e-01 5.793119e-01 0.000000e+00
8.445569e-01 5.790410e-01 0.000000e+00
8.450725e-01 6.200000e-01 0.000000e+00
8.756496e-01 5.793119e-01 0.000000e+00
8.763991e-01 6.200000e-01 0.000000e+00
8.749953e-01 5.442793e-01 0.000000e+00
8.756496e-01 5.793119e-01 0.000000e+00
9.057448e-01 5.446922e-01 0.000000e+00
9.067282e-01 5.796084e-01 0.000000e+00
8.756496e-01 5.793119e-01 0.000000e+00
8.763991e-01 6.200000e-01 0.000000e+00
9.067282e-01 5.796084e-01 0.000000e+00
9.077872e-01 6.200000e-01 0.000000e+00
9.057448e-01 5.446922e-01 0.000000e+00
9.067282e-01 5.796084e-01 0.000000e+00
9.363778e-01 5.451212e-01 0.000000e+00
9.377934e-01 5.799337e-01 0.000000e+00
9.067282e-01 5.796084e-01 0.000000e+00
9.077872e-01 6.200000e-01 0.000000e+00
9.377934e-01 5.799337e-01 0.000000e+00
9.392620e-01 6.200000e-01 0.000000e+00
9.363778e-01 5.451212e-01 0.000000e+00
9.377934e-01 5.799337e-01 0.000000e+00
9.668657e-01 5.455612e-01 0.000000e+00
9.688436e-01 5.802885e-01 0.000000e+00
9.377934e-01 5.799337e-01 0.000000e+00
9.392620e-01 6.200000e-01 0.000000e+00
9.688436e-01 5.802885e-01 0.000000e+00
9.708554e-01 6.200000e-01 0.000000e+00
9.668657e-01 5.455612e-01 0.000000e+00
[...]
<PointData>
<DataArray type="Float32" Name="V1" format="ascii">
3.943199e+01
1.351627e+01
3.944796e+01
1.353224e+01
1.426436e+01
2.037509e+00
1.427161e+01
2.044756e+00
3.945604e+01
1.352265e+01
3.949645e+01
1.356306e+01
1.427730e+01
2.041795e+00
1.429614e+01
2.060642e+00
3.951471e+01
1.354476e+01
3.958218e+01
1.361223e+01
1.430731e+01
2.054445e+00
1.433937e+01
2.086506e+00
3.960955e+01
1.358474e+01
3.970430e+01
1.367949e+01
1.435578e+01
2.076813e+00
1.440106e+01
2.122090e+00
3.974082e+01
1.364272e+01
3.986308e+01
1.376498e+01
1.442282e+01
2.108936e+00
1.448140e+01
2.167514e+00
3.990881e+01
1.371884e+01
4.005889e+01
1.386891e+01
1.450859e+01
2.150897e+00
1.458062e+01
2.222923e+00
4.011391e+01
1.381333e+01
4.029216e+01
1.399157e+01
1.461333e+01
2.202813e+00
1.469900e+01
2.288489e+00
4.035657e+01
1.392645e+01
4.056341e+01
1.413329e+01
1.473732e+01
2.264842e+00
1.483690e+01
2.364417e+00
4.063731e+01
1.405852e+01
4.087324e+01
1.429446e+01
1.488092e+01
2.337175e+00
1.499470e+01
2.450958e+00
4.095673e+01
1.420994e+01
4.122231e+01
1.447552e+01
1.504454e+01
2.420053e+00
1.517289e+01
2.548402e+00
4.131548e+01
1.438113e+01
4.161134e+01
1.467699e+01
1.522866e+01
2.513757e+00
1.537200e+01
2.657097e+00
4.171428e+01
1.457263e+01
4.204108e+01
1.489943e+01
1.543383e+01
2.618624e+00
1.559266e+01
2.777450e+00
4.215386e+01
1.478503e+01
4.251234e+01
1.514351e+01
1.566068e+01
2.735056e+00
1.583558e+01
2.909947e+00
4.263498e+01
1.501900e+01
4.302590e+01
1.540992e+01
1.590994e+01
2.863523e+00
1.610157e+01
3.055154e+00
4.315836e+01
1.527532e+01
4.358252e+01
1.569949e+01
1.618242e+01
3.004595e+00
1.639158e+01
3.213759e+00
4.372468e+01
1.555488e+01
4.418290e+01
1.601309e+01
1.647905e+01
3.158950e+00
1.670668e+01
3.386584e+00
4.433449e+01
1.585867e+01
4.482755e+01
1.635174e+01
1.680089e+01
3.327406e+00
1.704810e+01
3.574617e+00
4.498814e+01
1.618788e+01
4.551678e+01
1.671652e+01
1.714915e+01
3.510956e+00
1.741727e+01
3.779075e+00
4.568566e+01
1.654385e+01
4.625051e+01
1.710870e+01
1.752523e+01
3.710819e+00
1.781586e+01
4.001453e+00
4.642663e+01
1.692814e+01
4.702812e+01
1.752964e+01
1.793074e+01
3.928504e+00
1.824585e+01
4.243617e+00
4.720992e+01
1.734262e+01
4.784823e+01
1.798093e+01
1.836758e+01
4.165893e+00
1.870960e+01
4.507911e+00
4.803350e+01
1.778948e+01
4.870836e+01
1.846434e+01
1.883797e+01
4.425363e+00
1.920992e+01
4.797314e+00
4.889396e+01
1.827139e+01
4.960451e+01
1.898194e+01
1.934456e+01
4.709945e+00
1.975027e+01
5.115655e+00
4.978607e+01
1.879159e+01
5.053060e+01
1.953611e+01
1.989054e+01
5.023527e+00
2.033489e+01
5.467874e+00
5.070211e+01
1.935409e+01
5.147767e+01
2.012965e+01
2.047980e+01
5.371179e+00
2.096908e+01
5.860461e+00
5.163093e+01
1.996391e+01
5.243292e+01
2.076591e+01
2.111707e+01
5.759557e+00
2.165950e+01
6.301990e+00
5.255686e+01
2.062736e+01
5.337839e+01
2.144890e+01
2.180816e+01
6.197532e+00
2.241458e+01
6.803953e+00
5.345827e+01
2.135241e+01
5.428933e+01
2.218347e+01
2.256017e+01
6.697123e+00
2.324504e+01
7.381998e+00
5.430579e+01
2.214910e+01
5.513225e+01
2.297556e+01
2.338156e+01
7.274958e+00
2.416448e+01
8.057881e+00
5.506039e+01
2.303002e+01
5.586290e+01
2.383252e+01
2.428197e+01
7.954780e+00
2.518998e+01
8.862799e+00
5.567134e+01
2.401081e+01
5.642447e+01
2.476394e+01
2.527105e+01
8.771968e+00
2.634258e+01
9.843502e+00
5.607450e+01
2.511111e+01
5.674761e+01
2.578422e+01
2.635507e+01
9.782486e+00
2.764726e+01
1.107468e+01
5.619163e+01
2.635766e+01
5.675489e+01
2.692091e+01
2.752823e+01
1.108211e+01
2.913272e+01
1.268660e+01
5.593115e+01
2.779617e+01
5.637677e+01
2.824180e+01
2.875281e+01
1.285148e+01
3.083131e+01
1.492998e+01
5.519747e+01
2.952678e+01
5.560158e+01
2.993089e+01
2.993123e+01
1.544670e+01
3.278663e+01
1.830210e+01
5.385740e+01
3.185255e+01
5.446724e+01
3.246240e+01
3.068972e+01
2.014818e+01
3.436167e+01
2.382013e+01
5.283663e+01
3.433994e+01
5.333234e+01
3.483566e+01
3.295864e+01
2.485907e+01
3.502014e+01
2.692057e+01
5.240909e+01
3.578590e+01
5.314577e+01
3.652258e+01
3.476204e+01
2.697346e+01
3.641474e+01
2.862616e+01
5.265980e+01
3.698105e+01
5.360447e+01
3.792571e+01
3.623869e+01
2.870734e+01
3.771290e+01
3.018155e+01
5.342945e+01
3.810143e+01
5.456855e+01
3.924054e+01
3.767056e+01
3.019863e+01
3.902316e+01
3.155122e+01
5.456872e+01
3.923449e+01
5.584804e+01
4.051381e+01
3.906640e+01
3.151479e+01
4.031346e+01
3.276184e+01
5.596448e+01
4.038091e+01
5.733646e+01
4.175289e+01
4.042646e+01
3.268048e+01
4.158028e+01
3.383430e+01
5.753215e+01
4.153077e+01
5.895696e+01
4.295558e+01
4.174550e+01
3.371864e+01
4.281545e+01
3.478859e+01
5.920773e+01
4.267091e+01
6.065322e+01
4.411641e+01
4.301806e+01
3.464839e+01
4.401157e+01
3.564190e+01
6.094152e+01
4.378928e+01
6.238197e+01
4.522973e+01
4.423901e+01
3.548567e+01
4.516198e+01
3.640864e+01
6.269441e+01
4.487574e+01
6.410936e+01
4.629070e+01
4.540405e+01
3.624333e+01
4.626119e+01
3.710047e+01
6.443536e+01
4.592218e+01
6.580868e+01
4.729549e+01
4.650981e+01
3.693159e+01
4.730493e+01
3.772670e+01
6.613974e+01
4.692226e+01
6.745878e+01
4.824130e+01
4.755381e+01
3.755850e+01
4.829001e+01
3.829470e+01
6.778803e+01
4.787120e+01
6.904299e+01
4.912616e+01
4.853430e+01
3.813039e+01
4.921416e+01
3.881025e+01
6.936488e+01
4.876542e+01
7.054825e+01
4.994879e+01
4.945014e+01
3.865224e+01
5.007582e+01
3.927792e+01
7.085829e+01
4.960235e+01
7.196438e+01
5.070844e+01
5.030067e+01
3.912798e+01
5.087401e+01
3.970131e+01
7.225900e+01
5.038017e+01
7.328360e+01
5.140477e+01
5.108563e+01
3.956073e+01
5.160819e+01
4.008328e+01
7.355994e+01
5.109767e+01
7.449998e+01
5.203771e+01
5.180500e+01
3.995298e+01
5.227813e+01
4.042610e+01
7.475580e+01
5.175410e+01
7.560911e+01
5.260741e+01
5.245898e+01
4.030673e+01
5.288384e+01
4.073159e+01
7.584268e+01
5.234905e+01
7.660777e+01
5.311414e+01
5.304790e+01
4.062359e+01
5.342550e+01
4.100119e+01
7.681773e+01
5.288235e+01
7.749364e+01
5.355826e+01
5.357216e+01
4.090487e+01
5.390339e+01
4.123610e+01
7.767897e+01
5.335401e+01
7.826512e+01
5.394015e+01
5.403224e+01
4.115165e+01
5.431784e+01
4.143725e+01
7.842505e+01
5.376416e+01
7.892111e+01
5.426022e+01
5.442860e+01
4.136478e+01
5.466920e+01
4.160539e+01
7.905507e+01
5.411298e+01
7.946090e+01
5.451882e+01
5.476168e+01
4.154497e+01
5.495783e+01
4.174112e+01
7.956848e+01
5.440070e+01
7.988407e+01
5.471629e+01
5.503190e+01
4.169277e+01
5.518402e+01
4.184489e+01
7.996497e+01
5.462752e+01
8.019034e+01
5.485289e+01
5.523962e+01
4.180864e+01
5.534804e+01
4.191706e+01
8.024438e+01
5.479364e+01
8.037957e+01
5.492883e+01
5.538512e+01
4.189290e+01
5.545008e+01
4.195786e+01
8.040661e+01
5.489918e+01
8.045167e+01
5.494424e+01
5.546863e+01
4.194577e+01
5.549027e+01
4.196741e+01
</DataArray>
<DataArray type="Float32" Name="V2" format="ascii">
5.387566e-01
5.760732e-01
5.393808e-01
5.766803e-01
5.760732e-01
6.200000e-01
5.766803e-01
6.205892e-01
5.393808e-01
5.766803e-01
5.412469e-01
5.785004e-01
5.766803e-01
6.205892e-01
5.785004e-01
6.223557e-01
5.412469e-01
5.785004e-01
5.443538e-01
5.815308e-01
5.785004e-01
6.223557e-01
5.815308e-01
6.252971e-01
5.443538e-01
5.815308e-01
5.486971e-01
5.857669e-01
5.815308e-01
6.252971e-01
5.857669e-01
6.294088e-01
5.486971e-01
5.857669e-01
5.542699e-01
5.912025e-01
5.857669e-01
6.294088e-01
5.912025e-01
6.346847e-01
5.542699e-01
5.912025e-01
5.610640e-01
5.978293e-01
5.912025e-01
6.346847e-01
5.978293e-01
6.411168e-01
5.610640e-01
5.978293e-01
5.690691e-01
6.056373e-01
5.978293e-01
6.411168e-01
6.056373e-01
6.486954e-01
5.690691e-01
6.056373e-01
5.782730e-01
6.146146e-01
6.056373e-01
6.486954e-01
6.146146e-01
6.574091e-01
5.782730e-01
6.146146e-01
5.886616e-01
6.247478e-01
6.146146e-01
6.574091e-01
6.247478e-01
6.672447e-01
5.886616e-01
6.247478e-01
6.002193e-01
6.360215e-01
6.247478e-01
6.672447e-01
6.360215e-01
6.781873e-01
6.002193e-01
6.360215e-01
6.129284e-01
6.484186e-01
6.360215e-01
6.781873e-01
6.484186e-01
6.902204e-01
6.129284e-01
6.484186e-01
6.267694e-01
6.619202e-01
6.484186e-01
6.902204e-01
6.619202e-01
7.033258e-01
6.267694e-01
6.619202e-01
6.417211e-01
6.765059e-01
6.619202e-01
7.033258e-01
6.765059e-01
7.174835e-01
6.417211e-01
6.765059e-01
6.577606e-01
6.921534e-01
6.765059e-01
7.174835e-01
6.921534e-01
7.326721e-01
6.577606e-01
6.921534e-01
6.748629e-01
7.088388e-01
6.921534e-01
7.326721e-01
7.088388e-01
7.488684e-01
6.748629e-01
7.088388e-01
6.930017e-01
7.265367e-01
7.088388e-01
7.488684e-01
7.265367e-01
7.660479e-01
6.930017e-01
7.265367e-01
7.121486e-01
7.452199e-01
7.265367e-01
7.660479e-01
7.452199e-01
7.841845e-01
7.121486e-01
7.452199e-01
7.322735e-01
7.648599e-01
7.452199e-01
7.841845e-01
7.648599e-01
8.032508e-01
7.322735e-01
7.648599e-01
7.533448e-01
7.854265e-01
7.648599e-01
8.032508e-01
7.854265e-01
8.232179e-01
7.533448e-01
7.854265e-01
7.753287e-01
8.068884e-01
7.854265e-01
8.232179e-01
8.068884e-01
8.440559e-01
7.753287e-01
8.068884e-01
7.981900e-01
8.292126e-01
8.068884e-01
8.440559e-01
8.292126e-01
8.657337e-01
7.981900e-01
8.292126e-01
8.218913e-01
8.523651e-01
8.292126e-01
8.657337e-01
8.523651e-01
8.882196e-01
8.218913e-01
8.523651e-01
8.463935e-01
8.763107e-01
8.523651e-01
8.882196e-01
8.763107e-01
9.114810e-01
8.463935e-01
8.763107e-01
8.716551e-01
9.010130e-01
8.763107e-01
9.114810e-01
9.010130e-01
9.354851e-01
8.716551e-01
9.010130e-01
8.976325e-01
9.264349e-01
9.010130e-01
9.354851e-01
9.264349e-01
9.601992e-01
8.976325e-01
9.264349e-01
9.242792e-01
9.525385e-01
9.264349e-01
9.601992e-01
9.525385e-01
9.855910e-01
9.242792e-01
9.525385e-01
9.515457e-01
9.792851e-01
9.525385e-01
9.855910e-01
9.792851e-01
1.011630e+00
9.515457e-01
9.792851e-01
9.793783e-01
1.006635e+00
9.792851e-01
1.011630e+00
1.006635e+00
1.038286e+00
9.793783e-01
1.006635e+00
1.007718e+00
1.034549e+00
1.006635e+00
1.038286e+00
1.034549e+00
1.065534e+00
1.007718e+00
1.034549e+00
1.036501e+00
1.062983e+00
1.034549e+00
1.065534e+00
1.062983e+00
1.093353e+00
1.036501e+00
1.062983e+00
1.065650e+00
1.091892e+00
1.062983e+00
1.093353e+00
1.091892e+00
1.121724e+00
1.065650e+00
1.091892e+00
1.095078e+00
1.121218e+00
1.091892e+00
1.121724e+00
1.121218e+00
1.150639e+00
1.095078e+00
1.121218e+00
1.124667e+00
1.150881e+00
1.121218e+00
1.150639e+00
1.150881e+00
1.180088e+00
1.124667e+00
1.150881e+00
1.154255e+00
1.180739e+00
1.150881e+00
1.180088e+00
1.180739e+00
1.210048e+00
1.154255e+00
1.180739e+00
1.183568e+00
1.210498e+00
1.180739e+00
1.210048e+00
1.210498e+00
1.240425e+00
1.183568e+00
1.210498e+00
1.212294e+00
1.239724e+00
1.210498e+00
1.240425e+00
1.239724e+00
1.270380e+00
1.212294e+00
1.239724e+00
1.239669e+00
1.267364e+00
1.239724e+00
1.270380e+00
1.267364e+00
1.298014e+00
1.239669e+00
1.267364e+00
1.265458e+00
1.293507e+00
1.267364e+00
1.298014e+00
1.293507e+00
1.324402e+00
1.265458e+00
1.293507e+00
1.289640e+00
1.318155e+00
1.293507e+00
1.324402e+00
1.318155e+00
1.349406e+00
1.289640e+00
1.318155e+00
1.312318e+00
1.341350e+00
1.318155e+00
1.349406e+00
1.341350e+00
1.373026e+00
1.312318e+00
1.341350e+00
1.333568e+00
1.363114e+00
1.341350e+00
1.373026e+00
1.363114e+00
1.395243e+00
1.333568e+00
1.363114e+00
1.353461e+00
1.383488e+00
1.363114e+00
1.395243e+00
1.383488e+00
1.416070e+00
1.353461e+00
1.383488e+00
1.372060e+00
1.402522e+00
1.383488e+00
1.416070e+00
1.402522e+00
1.435535e+00
1.372060e+00
1.402522e+00
1.389421e+00
1.420267e+00
1.402522e+00
1.435535e+00
1.420267e+00
1.453679e+00
1.389421e+00
1.420267e+00
1.405600e+00
1.436777e+00
1.420267e+00
1.453679e+00
1.436777e+00
1.470550e+00
1.405600e+00
1.436777e+00
1.420644e+00
1.452103e+00
1.436777e+00
1.470550e+00
1.452103e+00
1.486196e+00
1.420644e+00
1.452103e+00
1.434602e+00
1.466298e+00
1.452103e+00
1.486196e+00
1.466298e+00
1.500671e+00
1.434602e+00
1.466298e+00
1.447514e+00
1.479407e+00
1.466298e+00
1.500671e+00
1.479407e+00
1.514023e+00
1.447514e+00
1.479407e+00
1.459422e+00
1.491477e+00
1.479407e+00
1.514023e+00
1.491477e+00
1.526301e+00
1.459422e+00
1.491477e+00
1.470361e+00
1.502548e+00
1.491477e+00
1.526301e+00
1.502548e+00
1.537548e+00
1.470361e+00
1.502548e+00
1.480364e+00
1.512658e+00
1.502548e+00
1.537548e+00
1.512658e+00
1.547807e+00
1.480364e+00
1.512658e+00
1.489463e+00
1.521842e+00
1.512658e+00
1.547807e+00
1.521842e+00
1.557116e+00
1.489463e+00
1.521842e+00
1.497683e+00
1.530130e+00
1.521842e+00
1.557116e+00
1.530130e+00
1.565507e+00
1.497683e+00
1.530130e+00
1.505050e+00
1.537550e+00
1.530130e+00
1.565507e+00
1.537550e+00
1.573013e+00
1.505050e+00
1.537550e+00
1.511586e+00
1.544126e+00
1.537550e+00
1.573013e+00
1.544126e+00
1.579659e+00
1.511586e+00
1.544126e+00
1.517309e+00
1.549880e+00
1.544126e+00
1.579659e+00
1.549880e+00
1.585470e+00
1.517309e+00
1.549880e+00
1.522236e+00
1.554831e+00
1.549880e+00
1.585470e+00
1.554831e+00
1.590467e+00
1.522236e+00
1.554831e+00
1.526381e+00
1.558993e+00
1.554831e+00
1.590467e+00
1.558993e+00
1.594666e+00
1.526381e+00
1.558993e+00
1.529757e+00
1.562382e+00
1.558993e+00
1.594666e+00
1.562382e+00
1.598082e+00
1.529757e+00
1.562382e+00
1.532373e+00
1.565007e+00
1.562382e+00
1.598082e+00
1.565007e+00
1.600727e+00
1.532373e+00
1.565007e+00
1.534236e+00
1.566875e+00
1.565007e+00
1.600727e+00
1.566875e+00
1.602610e+00
1.534236e+00
1.566875e+00
1.535352e+00
1.567994e+00
1.566875e+00
1.602610e+00
1.567994e+00
1.603738e+00
1.535352e+00
1.567994e+00
1.535724e+00
1.568367e+00
1.567994e+00
1.603738e+00
1.568367e+00
1.604113e+00
</DataArray>
<DataArray type="Float32" Name="V3" format="ascii">
0.000000e+00
0.000000e+00
1.794890e-02
1.700055e-02
0.000000e+00
0.000000e+00
1.700055e-02
1.589480e-02
1.794890e-02
1.700055e-02
3.584592e-02
3.395027e-02
1.700055e-02
1.589480e-02
3.395027e-02
3.174002e-02
3.584592e-02
3.395027e-02
5.363896e-02
5.079835e-02
3.395027e-02
3.174002e-02
5.079835e-02
4.748624e-02
5.363896e-02
5.079835e-02
7.127620e-02
6.749408e-02
5.079835e-02
4.748624e-02
6.749408e-02
6.308409e-02
7.127620e-02
6.749408e-02
8.870599e-02
8.398697e-02
6.749408e-02
6.308409e-02
8.398697e-02
7.848436e-02
8.870599e-02
8.398697e-02
1.058769e-01
1.002267e-01
8.398697e-02
7.848436e-02
1.002267e-01
9.363809e-02
1.058769e-01
1.002267e-01
1.227379e-01
1.161634e-01
1.002267e-01
9.363809e-02
1.161634e-01
1.084966e-01
1.227379e-01
1.161634e-01
1.392381e-01
1.317474e-01
1.161634e-01
1.084966e-01
1.317474e-01
1.230116e-01
1.392381e-01
1.317474e-01
1.553272e-01
1.469294e-01
1.317474e-01
1.230116e-01
1.469294e-01
1.371352e-01
1.553272e-01
1.469294e-01
1.709554e-01
1.616607e-01
1.469294e-01
1.371352e-01
1.616607e-01
1.508199e-01
1.709554e-01
1.616607e-01
1.860731e-01
1.758930e-01
1.616607e-01
1.508199e-01
1.758930e-01
1.640188e-01
1.860731e-01
1.758930e-01
2.006317e-01
1.895788e-01
1.758930e-01
1.640188e-01
1.895788e-01
1.766856e-01
2.006317e-01
1.895788e-01
2.145829e-01
2.026710e-01
1.895788e-01
1.766856e-01
2.026710e-01
1.887747e-01
2.145829e-01
2.026710e-01
2.278792e-01
2.151232e-01
2.026710e-01
1.887747e-01
2.151232e-01
2.002412e-01
2.278792e-01
2.151232e-01
2.404739e-01
2.268900e-01
2.151232e-01
2.002412e-01
2.268900e-01
2.110410e-01
2.404739e-01
2.268900e-01
2.523207e-01
2.379264e-01
2.268900e-01
2.110410e-01
2.379264e-01
2.211308e-01
2.523207e-01
2.379264e-01
2.633745e-01
2.481887e-01
2.379264e-01
2.211308e-01
2.481887e-01
2.304686e-01
2.633745e-01
2.481887e-01
2.735907e-01
2.576338e-01
2.481887e-01
2.304686e-01
2.576338e-01
2.390132e-01
2.735907e-01
2.576338e-01
2.829256e-01
2.662196e-01
2.576338e-01
2.390132e-01
2.662196e-01
2.467245e-01
2.829256e-01
2.662196e-01
2.913363e-01
2.739051e-01
2.662196e-01
2.467245e-01
2.739051e-01
2.535641e-01
2.913363e-01
2.739051e-01
2.987807e-01
2.806503e-01
2.739051e-01
2.535641e-01
2.806503e-01
2.594948e-01
2.987807e-01
2.806503e-01
3.052174e-01
2.864163e-01
2.806503e-01
2.594948e-01
2.864163e-01
2.644810e-01
3.052174e-01
2.864163e-01
3.106057e-01
2.911653e-01
2.864163e-01
2.644810e-01
2.911653e-01
2.684890e-01
3.106057e-01
2.911653e-01
3.149054e-01
2.948605e-01
2.911653e-01
2.684890e-01
2.948605e-01
2.714870e-01
3.149054e-01
2.948605e-01
3.180770e-01
2.974666e-01
2.948605e-01
2.714870e-01
2.974666e-01
2.734457e-01
3.180770e-01
2.974666e-01
3.200810e-01
2.989492e-01
2.974666e-01
2.734457e-01
2.989492e-01
2.743382e-01
3.200810e-01
2.989492e-01
3.208782e-01
2.992750e-01
2.989492e-01
2.743382e-01
2.992750e-01
2.741406e-01
3.208782e-01
2.992750e-01
3.204294e-01
2.984120e-01
2.992750e-01
2.741406e-01
2.984120e-01
2.728323e-01
3.204294e-01
2.984120e-01
3.186953e-01
2.963291e-01
2.984120e-01
2.728323e-01
2.963291e-01
2.703966e-01
3.186953e-01
2.963291e-01
3.156369e-01
2.929961e-01
2.963291e-01
2.703966e-01
2.929961e-01
2.668207e-01
3.156369e-01
2.929961e-01
3.112162e-01
2.883842e-01
2.929961e-01
2.668207e-01
2.883842e-01
2.620964e-01
3.112162e-01
2.883842e-01
3.053990e-01
2.824665e-01
2.883842e-01
2.620964e-01
2.824665e-01
2.562189e-01
3.053990e-01
2.824665e-01
2.981622e-01
2.752224e-01
2.824665e-01
2.562189e-01
2.752224e-01
2.491828e-01
2.981622e-01
2.752224e-01
2.895120e-01
2.666507e-01
2.752224e-01
2.491828e-01
2.666507e-01
2.409656e-01
2.895120e-01
2.666507e-01
2.795418e-01
2.568146e-01
2.666507e-01
2.409656e-01
2.568146e-01
2.314878e-01
2.795418e-01
2.568146e-01
2.685333e-01
2.459698e-01
2.568146e-01
2.314878e-01
2.459698e-01
2.205326e-01
2.685333e-01
2.459698e-01
2.573454e-01
2.352547e-01
2.459698e-01
2.205326e-01
2.352547e-01
2.106540e-01
2.573454e-01
2.352547e-01
2.462828e-01
2.249006e-01
2.352547e-01
2.106540e-01
2.249006e-01
2.014784e-01
2.462828e-01
2.249006e-01
2.355292e-01
2.150483e-01
2.249006e-01
2.014784e-01
2.150483e-01
1.928538e-01
2.355292e-01
2.150483e-01
2.250465e-01
2.055874e-01
2.150483e-01
1.928538e-01
2.055874e-01
1.846407e-01
2.250465e-01
2.055874e-01
2.147975e-01
1.964301e-01
2.055874e-01
1.846407e-01
1.964301e-01
1.767380e-01
2.147975e-01
1.964301e-01
2.047385e-01
1.874967e-01
1.964301e-01
1.767380e-01
1.874967e-01
1.690549e-01
2.047385e-01
1.874967e-01
1.948300e-01
1.787213e-01
1.874967e-01
1.690549e-01
1.787213e-01
1.615139e-01
1.948300e-01
1.787213e-01
1.850363e-01
1.700496e-01
1.787213e-01
1.615139e-01
1.700496e-01
1.540504e-01
1.850363e-01
1.700496e-01
1.753265e-01
1.614373e-01
1.700496e-01
1.540504e-01
1.614373e-01
1.466119e-01
1.753265e-01
1.614373e-01
1.656742e-01
1.528492e-01
1.614373e-01
1.466119e-01
1.528492e-01
1.391574e-01
1.656742e-01
1.528492e-01
1.560571e-01
1.442574e-01
1.528492e-01
1.391574e-01
1.442574e-01
1.316555e-01
1.560571e-01
1.442574e-01
1.464570e-01
1.356406e-01
1.442574e-01
1.316555e-01
1.356406e-01
1.240829e-01
1.464570e-01
1.356406e-01
1.368590e-01
1.269828e-01
1.356406e-01
1.240829e-01
1.269828e-01
1.164237e-01
1.368590e-01
1.269828e-01
1.272514e-01
1.182728e-01
1.269828e-01
1.164237e-01
1.182728e-01
1.086673e-01
1.272514e-01
1.182728e-01
1.176255e-01
1.095032e-01
1.182728e-01
1.086673e-01
1.095032e-01
1.008083e-01
1.176255e-01
1.095032e-01
1.079748e-01
1.006698e-01
1.095032e-01
1.008083e-01
1.006698e-01
9.284474e-02
1.079748e-01
1.006698e-01
9.829507e-02
9.177097e-02
1.006698e-01
9.284474e-02
9.177097e-02
8.477809e-02
9.829507e-02
9.177097e-02
8.858400e-02
8.280740e-02
9.177097e-02
8.477809e-02
8.280740e-02
7.661215e-02
8.858400e-02
8.280740e-02
7.884077e-02
7.378153e-02
8.280740e-02
7.661215e-02
7.378153e-02
6.835274e-02
7.884077e-02
7.378153e-02
6.906595e-02
6.469727e-02
7.378153e-02
6.835274e-02
6.469727e-02
6.000724e-02
6.906595e-02
6.469727e-02
5.926125e-02
5.555974e-02
6.469727e-02
6.000724e-02
5.555974e-02
5.158428e-02
5.926125e-02
5.555974e-02
4.942930e-02
4.637500e-02
5.555974e-02
5.158428e-02
4.637500e-02
4.309346e-02
4.942930e-02
4.637500e-02
3.957356e-02
3.714988e-02
4.637500e-02
4.309346e-02
3.714988e-02
3.454510e-02
3.957356e-02
3.714988e-02
2.969806e-02
2.789180e-02
3.714988e-02
3.454510e-02
2.789180e-02
2.595012e-02
2.969806e-02
2.789180e-02
1.980734e-02
1.860863e-02
2.789180e-02
2.595012e-02
1.860863e-02
1.731984e-02
1.980734e-02
1.860863e-02
9.906282e-03
9.308567e-03
1.860863e-02
1.731984e-02
9.308567e-03
8.665865e-03
9.906282e-03
9.308567e-03
0.000000e+00
0.000000e+00
9.308567e-03
8.665865e-03
0.000000e+00
0.000000e+00
</DataArray>
<DataArray type="Float32" Name="V4" format="ascii">
8.500000e-01
9.250000e-01
8.500000e-01
9.250000e-01
9.250000e-01
1.000000e+00