<?xml version="1.0"?>
<VTKFile type="UnstructuredGrid" version="0.1" byte_order="LittleEndian" compressor="vtkZLibDataCompressor">
<UnstructuredGrid>
<Piece NumberOfPoints="504" NumberOfCells="126">
<Points>
<DataArray type="Float32" NumberOfComponents="3" format="ascii">
0.000000e+00 4.039633e-01 0.000000e+00
0.000000e+00 4.253404e-01 0.000000e+00
4.146980e-02 4.039719e-01 0.000000e+00
4.146828e-02 4.253417e-01 0.000000e+00
0.000000e+00 4.253404e-01 0.000000e+00
0.000000e+00 4.504688e-01 0.000000e+00
4.146828e-02 4.253417e-01 0.000000e+00
4.146848e-02 4.504688e-01 0.000000e+00
4.146980e-02 4.039719e-01 0.000000e+00
4.146828e-02 4.253417e-01 0.000000e+00
8.293859e-02 4.039837e-01 0.000000e+00
8.293547e-02 4.253479e-01 0.000000e+00
4.146828e-02 4.253417e-01 0.000000e+00
4.146848e-02 4.504688e-01 0.000000e+00
8.293547e-02 4.253479e-01 0.000000e+00
8.293575e-02 4.504688e-01 0.000000e+00
8.293859e-02 4.039837e-01 0.000000e+00
8.293547e-02 4.253479e-01 0.000000e+00
1.244048e-01 4.040031e-01 0.000000e+00
1.244001e-01 4.253584e-01 0.000000e+00
8.293547e-02 4.253479e-01 0.000000e+00
8.293575e-02 4.504688e-01 0.000000e+00
1.244001e-01 4.253584e-01 0.000000e+00
1.244005e-01 4.504688e-01 0.000000e+00
1.244048e-01 4.040031e-01 0.000000e+00
1.244001e-01 4.253584e-01 0.000000e+00
1.658673e-01 4.040303e-01 0.000000e+00
1.658610e-01 4.253731e-01 0.000000e+00
1.244001e-01 4.253584e-01 0.000000e+00
1.244005e-01 4.504688e-01 0.000000e+00
1.658610e-01 4.253731e-01 0.000000e+00
1.658616e-01 4.504688e-01 0.000000e+00
1.658673e-01 4.040303e-01 0.000000e+00
1.658610e-01 4.253731e-01 0.000000e+00
2.073247e-01 4.040651e-01 0.000000e+00
2.073169e-01 4.253920e-01 0.000000e+00
1.658610e-01 4.253731e-01 0.000000e+00
1.658616e-01 4.504688e-01 0.000000e+00
2.073169e-01 4.253920e-01 0.000000e+00
2.073176e-01 4.504688e-01 0.000000e+00
2.073247e-01 4.040651e-01 0.000000e+00
2.073169e-01 4.253920e-01 0.000000e+00
2.487757e-01 4.041077e-01 0.000000e+00
2.487664e-01 4.254150e-01 0.000000e+00
2.073169e-01 4.253920e-01 0.000000e+00
2.073176e-01 4.504688e-01 0.000000e+00
2.487664e-01 4.254150e-01 0.000000e+00
2.487673e-01 4.504688e-01 0.000000e+00
2.487757e-01 4.041077e-01 0.000000e+00
2.487664e-01 4.254150e-01 0.000000e+00
2.902191e-01 4.041579e-01 0.000000e+00
2.902084e-01 4.254422e-01 0.000000e+00
2.487664e-01 4.254150e-01 0.000000e+00
2.487673e-01 4.504688e-01 0.000000e+00
2.902084e-01 4.254422e-01 0.000000e+00
2.902095e-01 4.504688e-01 0.000000e+00
2.902191e-01 4.041579e-01 0.000000e+00
2.902084e-01 4.254422e-01 0.000000e+00
3.316535e-01 4.042158e-01 0.000000e+00
3.316414e-01 4.254735e-01 0.000000e+00
2.902084e-01 4.254422e-01 0.000000e+00
2.902095e-01 4.504688e-01 0.000000e+00
3.316414e-01 4.254735e-01 0.000000e+00
3.316428e-01 4.504688e-01 0.000000e+00
3.316535e-01 4.042158e-01 0.000000e+00
3.316414e-01 4.254735e-01 0.000000e+00
3.730776e-01 4.042813e-01 0.000000e+00
3.730642e-01 4.255090e-01 0.000000e+00
3.316414e-01 4.254735e-01 0.000000e+00
3.316428e-01 4.504688e-01 0.000000e+00
3.730642e-01 4.255090e-01 0.000000e+00
3.730659e-01 4.504688e-01 0.000000e+00
3.730776e-01 4.042813e-01 0.000000e+00
3.730642e-01 4.255090e-01 0.000000e+00
4.144901e-01 4.043544e-01 0.000000e+00
4.144754e-01 4.255485e-01 0.000000e+00
3.730642e-01 4.255090e-01 0.000000e+00
3.730659e-01 4.504688e-01 0.000000e+00
4.144754e-01 4.255485e-01 0.000000e+00
4.144775e-01 4.504688e-01 0.000000e+00
4.144901e-01 4.043544e-01 0.000000e+00
4.144754e-01 4.255485e-01 0.000000e+00
4.558895e-01 4.044349e-01 0.000000e+00
4.558737e-01 4.255921e-01 0.000000e+00
4.144754e-01 4.255485e-01 0.000000e+00
4.144775e-01 4.504688e-01 0.000000e+00
4.558737e-01 4.255921e-01 0.000000e+00
4.558762e-01 4.504688e-01 0.000000e+00
4.558895e-01 4.044349e-01 0.000000e+00
4.558737e-01 4.255921e-01 0.000000e+00
4.972745e-01 4.045229e-01 0.000000e+00
4.972576e-01 4.256397e-01 0.000000e+00
4.558737e-01 4.255921e-01 0.000000e+00
4.558762e-01 4.504688e-01 0.000000e+00
4.972576e-01 4.256397e-01 0.000000e+00
4.972606e-01 4.504688e-01 0.000000e+00
4.972745e-01 4.045229e-01 0.000000e+00
4.972576e-01 4.256397e-01 0.000000e+00
5.386436e-01 4.046183e-01 0.000000e+00
5.386257e-01 4.256913e-01 0.000000e+00
4.972576e-01 4.256397e-01 0.000000e+00
4.972606e-01 4.504688e-01 0.000000e+00
5.386257e-01 4.256913e-01 0.000000e+00
5.386293e-01 4.504688e-01 0.000000e+00
5.386436e-01 4.046183e-01 0.000000e+00
5.386257e-01 4.256913e-01 0.000000e+00
5.799953e-01 4.047211e-01 0.000000e+00
5.799765e-01 4.257469e-01 0.000000e+00
5.386257e-01 4.256913e-01 0.000000e+00
5.386293e-01 4.504688e-01 0.000000e+00
5.799765e-01 4.257469e-01 0.000000e+00
5.799809e-01 4.504688e-01 0.000000e+00
5.799953e-01 4.047211e-01 0.000000e+00
5.799765e-01 4.257469e-01 0.000000e+00
6.213280e-01 4.048311e-01 0.000000e+00
6.213085e-01 4.258065e-01 0.000000e+00
5.799765e-01 4.257469e-01 0.000000e+00
5.799809e-01 4.504688e-01 0.000000e+00
6.213085e-01 4.258065e-01 0.000000e+00
6.213138e-01 4.504688e-01 0.000000e+00
6.213280e-01 4.048311e-01 0.000000e+00
6.213085e-01 4.258065e-01 0.000000e+00
6.626403e-01 4.049482e-01 0.000000e+00
6.626203e-01 4.258699e-01 0.000000e+00
6.213085e-01 4.258065e-01 0.000000e+00
6.213138e-01 4.504688e-01 0.000000e+00
6.626203e-01 4.258699e-01 0.000000e+00
6.626266e-01 4.504688e-01 0.000000e+00
6.626403e-01 4.049482e-01 0.000000e+00
6.626203e-01 4.258699e-01 0.000000e+00
7.039306e-01 4.050725e-01 0.000000e+00
7.039102e-01 4.259372e-01 0.000000e+00
6.626203e-01 4.258699e-01 0.000000e+00
6.626266e-01 4.504688e-01 0.000000e+00
7.039102e-01 4.259372e-01 0.000000e+00
7.039177e-01 4.504688e-01 0.000000e+00
7.039306e-01 4.050725e-01 0.000000e+00
7.039102e-01 4.259372e-01 0.000000e+00
7.451970e-01 4.052038e-01 0.000000e+00
7.451765e-01 4.260083e-01 0.000000e+00
7.039102e-01 4.259372e-01 0.000000e+00
7.039177e-01 4.504688e-01 0.000000e+00
7.451765e-01 4.260083e-01 0.000000e+00
7.451855e-01 4.504688e-01 0.000000e+00
7.451970e-01 4.052038e-01 0.000000e+00
7.451765e-01 4.260083e-01 0.000000e+00
7.864380e-01 4.053421e-01 0.000000e+00
7.864177e-01 4.260832e-01 0.000000e+00
7.451765e-01 4.260083e-01 0.000000e+00
7.451855e-01 4.504688e-01 0.000000e+00
7.864177e-01 4.260832e-01 0.000000e+00
7.864284e-01 4.504688e-01 0.000000e+00
7.864380e-01 4.053421e-01 0.000000e+00
7.864177e-01 4.260832e-01 0.000000e+00
8.276517e-01 4.054872e-01 0.000000e+00
8.276320e-01 4.261618e-01 0.000000e+00
7.864177e-01 4.260832e-01 0.000000e+00
7.864284e-01 4.504688e-01 0.000000e+00
8.276320e-01 4.261618e-01 0.000000e+00
8.276447e-01 4.504688e-01 0.000000e+00
8.276517e-01 4.054872e-01 0.000000e+00
8.276320e-01 4.261618e-01 0.000000e+00
8.688362e-01 4.056390e-01 0.000000e+00
8.688175e-01 4.262441e-01 0.000000e+00
8.276320e-01 4.261618e-01 0.000000e+00
8.276447e-01 4.504688e-01 0.000000e+00
8.688175e-01 4.262441e-01 0.000000e+00
8.688328e-01 4.504688e-01 0.000000e+00
8.688362e-01 4.056390e-01 0.000000e+00
8.688175e-01 4.262441e-01 0.000000e+00
9.099897e-01 4.057975e-01 0.000000e+00
9.099726e-01 4.263300e-01 0.000000e+00
8.688175e-01 4.262441e-01 0.000000e+00
8.688328e-01 4.504688e-01 0.000000e+00
9.099726e-01 4.263300e-01 0.000000e+00
9.099909e-01 4.504688e-01 0.000000e+00
9.099897e-01 4.057975e-01 0.000000e+00
9.099726e-01 4.263300e-01 0.000000e+00
9.511101e-01 4.059626e-01 0.000000e+00
9.510952e-01 4.264196e-01 0.000000e+00
9.099726e-01 4.263300e-01 0.000000e+00
9.099909e-01 4.504688e-01 0.000000e+00
9.510952e-01 4.264196e-01 0.000000e+00
9.511172e-01 4.504688e-01 0.000000e+00
9.511101e-01 4.059626e-01 0.000000e+00
9.510952e-01 4.264196e-01 0.000000e+00
9.921953e-01 4.061341e-01 0.000000e+00
9.921836e-01 4.265127e-01 0.000000e+00
9.510952e-01 4.264196e-01 0.000000e+00
9.511172e-01 4.504688e-01 0.000000e+00
9.921836e-01 4.265127e-01 0.000000e+00
9.922101e-01 4.504688e-01 0.000000e+00
9.921953e-01 4.061341e-01 0.000000e+00
9.921836e-01 4.265127e-01 0.000000e+00
1.033243e+00 4.063120e-01 0.000000e+00
1.033236e+00 4.266094e-01 0.000000e+00
9.921836e-01 4.265127e-01 0.000000e+00
9.922101e-01 4.504688e-01 0.000000e+00
1.033236e+00 4.266094e-01 0.000000e+00
1.033268e+00 4.504688e-01 0.000000e+00
1.033243e+00 4.063120e-01 0.000000e+00
1.033236e+00 4.266094e-01 0.000000e+00
1.074251e+00 4.064962e-01 0.000000e+00
1.074249e+00 4.267096e-01 0.000000e+00
1.033236e+00 4.266094e-01 0.000000e+00
1.033268e+00 4.504688e-01 0.000000e+00
1.074249e+00 4.267096e-01 0.000000e+00
1.074288e+00 4.504688e-01 0.000000e+00
1.074251e+00 4.064962e-01 0.000000e+00
1.074249e+00 4.267096e-01 0.000000e+00
1.115217e+00 4.066865e-01 0.000000e+00
1.115222e+00 4.268133e-01 0.000000e+00
1.074249e+00 4.267096e-01 0.000000e+00
1.074288e+00 4.504688e-01 0.000000e+00
1.115222e+00 4.268133e-01 0.000000e+00
1.115270e+00 4.504688e-01 0.000000e+00
1.115217e+00 4.066865e-01 0.000000e+00
1.115222e+00 4.268133e-01 0.000000e+00
1.156137e+00 4.068828e-01 0.000000e+00
1.156152e+00 4.269204e-01 0.000000e+00
1.115222e+00 4.268133e-01 0.000000e+00
1.115270e+00 4.504688e-01 0.000000e+00
1.156152e+00 4.269204e-01 0.000000e+00
1.156211e+00 4.504688e-01 0.000000e+00
1.156137e+00 4.068828e-01 0.000000e+00
1.156152e+00 4.269204e-01 0.000000e+00
1.197010e+00 4.070851e-01 0.000000e+00
1.197038e+00 4.270310e-01 0.000000e+00
1.156152e+00 4.269204e-01 0.000000e+00
1.156211e+00 4.504688e-01 0.000000e+00
1.197038e+00 4.270310e-01 0.000000e+00
1.197110e+00 4.504688e-01 0.000000e+00
1.197010e+00 4.070851e-01 0.000000e+00
1.197038e+00 4.270310e-01 0.000000e+00
1.237832e+00 4.072933e-01 0.000000e+00
1.237876e+00 4.271452e-01 0.000000e+00
1.197038e+00 4.270310e-01 0.000000e+00
1.197110e+00 4.504688e-01 0.000000e+00
1.237876e+00 4.271452e-01 0.000000e+00
1.237966e+00 4.504688e-01 0.000000e+00
1.237832e+00 4.072933e-01 0.000000e+00
1.237876e+00 4.271452e-01 0.000000e+00
1.278600e+00 4.075072e-01 0.000000e+00
1.278664e+00 4.272629e-01 0.000000e+00
1.237876e+00 4.271452e-01 0.000000e+00
1.237966e+00 4.504688e-01 0.000000e+00
1.278664e+00 4.272629e-01 0.000000e+00
1.278777e+00 4.504688e-01 0.000000e+00
1.278600e+00 4.075072e-01 0.000000e+00
[...]
<PointData>
<DataArray type="Float32" Name="V1" format="ascii">
3.680069e+02
1.527886e+02
3.681459e+02
1.529276e+02
1.578830e+02
4.810819e+01
1.579388e+02
4.816398e+01
3.681877e+02
1.528428e+02
3.685241e+02
1.531792e+02
1.579864e+02
4.814393e+01
1.581444e+02
4.830200e+01
3.686368e+02
1.530358e+02
3.691850e+02
1.535840e+02
1.582340e+02
4.825571e+01
1.585055e+02
4.852725e+01
3.693648e+02
1.533785e+02
3.701265e+02
1.541403e+02
1.586353e+02
4.845293e+01
1.590198e+02
4.883747e+01
3.703727e+02
1.538714e+02
3.713509e+02
1.548496e+02
1.591907e+02
4.873560e+01
1.596888e+02
4.923366e+01
3.716633e+02
1.545158e+02
3.728611e+02
1.557136e+02
1.599017e+02
4.910433e+01
1.605143e+02
4.971697e+01
3.732400e+02
1.553137e+02
3.746608e+02
1.567345e+02
1.607700e+02
4.956007e+01
1.614986e+02
5.028875e+01
3.751068e+02
1.562671e+02
3.767546e+02
1.579150e+02
1.617978e+02
5.010401e+01
1.626444e+02
5.095060e+01
3.772685e+02
1.573786e+02
3.791478e+02
1.592579e+02
1.629879e+02
5.073762e+01
1.639546e+02
5.170435e+01
3.797307e+02
1.586513e+02
3.818464e+02
1.607671e+02
1.643433e+02
5.146264e+01
1.654328e+02
5.255210e+01
3.824998e+02
1.600885e+02
3.848576e+02
1.624464e+02
1.658678e+02
5.228108e+01
1.670829e+02
5.349624e+01
3.855829e+02
1.616942e+02
3.881891e+02
1.643004e+02
1.675653e+02
5.319523e+01
1.689095e+02
5.453946e+01
3.889882e+02
1.634726e+02
3.918498e+02
1.663343e+02
1.694406e+02
5.420769e+01
1.709176e+02
5.568476e+01
3.927246e+02
1.654288e+02
3.958494e+02
1.685536e+02
1.714987e+02
5.532138e+01
1.731128e+02
5.693548e+01
3.968020e+02
1.675681e+02
4.001986e+02
1.709647e+02
1.737455e+02
5.653954e+01
1.755013e+02
5.829534e+01
4.012314e+02
1.698966e+02
4.049093e+02
1.735744e+02
1.761873e+02
5.786578e+01
1.780899e+02
5.976844e+01
4.060249e+02
1.724209e+02
4.099942e+02
1.763902e+02
1.788310e+02
5.930411e+01
1.808862e+02
6.135932e+01
4.111955e+02
1.751484e+02
4.154676e+02
1.794205e+02
1.816843e+02
6.085896e+01
1.838984e+02
6.307298e+01
4.167575e+02
1.780871e+02
4.213446e+02
1.826742e+02
1.847557e+02
6.253521e+01
1.871355e+02
6.491494e+01
4.227265e+02
1.812457e+02
4.276420e+02
1.861612e+02
1.880544e+02
6.433827e+01
1.906075e+02
6.689128e+01
4.291192e+02
1.846340e+02
4.343775e+02
1.898924e+02
1.915905e+02
6.627411e+01
1.943252e+02
6.900874e+01
4.359538e+02
1.882625e+02
4.415706e+02
1.938793e+02
1.953751e+02
6.834930e+01
1.983005e+02
7.127475e+01
4.432497e+02
1.921427e+02
4.492420e+02
1.981350e+02
1.994201e+02
7.057117e+01
2.025465e+02
7.369754e+01
4.510280e+02
1.962872e+02
4.574140e+02
2.026732e+02
2.037389e+02
7.294781e+01
2.070774e+02
7.628628e+01
4.593109e+02
2.007099e+02
4.661103e+02
2.075092e+02
2.083459e+02
7.548825e+01
2.119089e+02
7.905120e+01
4.681223e+02
2.054257e+02
4.753561e+02
2.126596e+02
2.132569e+02
7.820258e+01
2.170581e+02
8.200379e+01
4.774872e+02
2.104514e+02
4.851782e+02
2.181424e+02
2.184892e+02
8.110215e+01
2.225441e+02
8.515697e+01
4.874321e+02
2.158051e+02
4.956042e+02
2.239773e+02
2.240620e+02
8.419976e+01
2.283877e+02
8.852544e+01
4.979844e+02
2.215070e+02
5.066633e+02
2.301859e+02
2.299962e+02
8.751002e+01
2.346121e+02
9.212599e+01
5.091721e+02
2.275790e+02
5.183847e+02
2.367916e+02
2.363149e+02
9.104962e+01
2.412433e+02
9.597798e+01
5.210236e+02
2.340459e+02
5.307980e+02
2.438204e+02
2.430439e+02
9.483791e+01
2.483099e+02
1.001040e+02
5.335666e+02
2.409349e+02
5.439320e+02
2.513003e+02
2.502116e+02
9.889746e+01
2.558446e+02
1.045304e+02
5.468273e+02
2.482766e+02
5.578132e+02
2.592625e+02
2.578499e+02
1.032549e+02
2.638839e+02
1.092889e+02
5.608286e+02
2.561054e+02
5.724642e+02
2.677409e+02
2.659946e+02
1.079420e+02
2.724699e+02
1.144172e+02
5.755882e+02
2.644602e+02
5.879013e+02
2.767732e+02
2.746860e+02
1.129970e+02
2.816507e+02
1.199617e+02
5.911153e+02
2.733855e+02
6.041305e+02
2.864007e+02
2.839701e+02
1.184670e+02
2.914822e+02
1.259791e+02
6.074067e+02
2.829325e+02
6.211431e+02
2.966690e+02
2.938993e+02
1.244099e+02
3.020301e+02
1.325408e+02
6.244408e+02
2.931603e+02
6.389085e+02
3.076280e+02
3.045339e+02
1.308987e+02
3.133721e+02
1.397369e+02
6.421705e+02
3.041380e+02
6.573649e+02
3.193324e+02
3.159438e+02
1.380264e+02
3.256011e+02
1.476838e+02
6.605125e+02
3.159464e+02
6.764071e+02
3.318411e+02
3.282095e+02
1.459136e+02
3.388292e+02
1.565332e+02
6.793340e+02
3.286795e+02
6.958703e+02
3.452157e+02
3.414235e+02
1.547193e+02
3.531917e+02
1.664875e+02
6.984357e+02
3.424459e+02
7.155092e+02
3.595194e+02
3.556875e+02
1.646590e+02
3.688509e+02
1.778224e+02
7.175277e+02
3.573698e+02
7.349734e+02
3.748154e+02
3.711021e+02
1.760334e+02
3.859946e+02
1.909260e+02
7.361913e+02
3.735986e+02
7.537743e+02
3.911816e+02
3.877277e+02
1.892859e+02
4.048136e+02
2.063718e+02
7.537845e+02
3.913680e+02
7.712343e+02
4.088179e+02
4.054582e+02
2.051477e+02
4.254131e+02
2.251026e+02
7.690547e+02
4.113727e+02
7.864349e+02
4.287528e+02
4.236959e+02
2.251262e+02
4.477071e+02
2.491375e+02
7.782971e+02
4.366300e+02
7.986772e+02
4.570101e+02
4.376854e+02
2.560652e+02
4.724343e+02
2.908141e+02
7.893807e+02
4.678009e+02
8.090462e+02
4.874664e+02
4.658635e+02
2.973079e+02
4.888848e+02
3.203293e+02
8.066183e+02
4.897471e+02
8.286526e+02
5.117814e+02
4.886798e+02
3.203862e+02
5.101947e+02
3.419011e+02
8.300384e+02
5.101933e+02
8.542103e+02
5.343652e+02
5.118769e+02
3.408095e+02
5.323913e+02
3.613239e+02
8.575116e+02
5.308317e+02
8.829092e+02
5.562293e+02
5.351998e+02
3.594545e+02
5.546466e+02
3.789013e+02
8.873079e+02
5.515315e+02
9.131013e+02
5.773249e+02
5.580778e+02
3.765905e+02
5.763764e+02
3.948891e+02
9.181155e+02
5.719587e+02
9.435908e+02
5.974339e+02
5.801550e+02
3.923368e+02
5.972203e+02
4.094020e+02
9.488817e+02
5.917541e+02
9.734312e+02
6.163035e+02
6.011350e+02
4.067554e+02
6.168791e+02
4.224995e+02
9.787430e+02
6.105859e+02
1.001855e+03
6.336980e+02
6.207623e+02
4.198741e+02
6.350982e+02
4.342100e+02
1.006986e+03
6.281638e+02
1.028235e+03
6.494126e+02
6.388160e+02
4.316983e+02
6.516617e+02
4.445441e+02
1.033024e+03
6.442405e+02
1.052059e+03
6.632758e+02
6.551069e+02
4.422194e+02
6.663884e+02
4.535009e+02
1.056376e+03
6.586097e+02
1.072914e+03
6.751473e+02
6.694759e+02
4.514207e+02
6.791287e+02
4.610735e+02
1.076654e+03
6.711020e+02
1.090468e+03
6.849158e+02
6.817917e+02
4.592823e+02
6.897616e+02
4.672521e+02
1.093551e+03
6.815806e+02
1.104466e+03
6.924954e+02
6.919485e+02
4.657835e+02
6.981917e+02
4.720267e+02
1.106829e+03
6.899381e+02
1.114715e+03
6.978235e+02
6.998636e+02
4.709054e+02
7.043467e+02
4.753884e+02
1.116314e+03
6.960928e+02
1.121080e+03
7.008590e+02
7.054761e+02
4.746317e+02
7.081752e+02
4.773309e+02
1.121887e+03
6.999860e+02
1.123482e+03
7.015805e+02
7.087443e+02
4.769499e+02
7.096456e+02
4.778512e+02
</DataArray>
<DataArray type="Float32" Name="V2" format="ascii">
4.039633e-01
4.253404e-01
4.048802e-01
4.262433e-01
4.253404e-01
4.504688e-01
4.262433e-01
4.513626e-01
4.048802e-01
4.262433e-01
4.076157e-01
4.289532e-01
4.262433e-01
4.513626e-01
4.289532e-01
4.540428e-01
4.076157e-01
4.289532e-01
4.121702e-01
4.334655e-01
4.289532e-01
4.540428e-01
4.334655e-01
4.585056e-01
4.121702e-01
4.334655e-01
4.185376e-01
4.397738e-01
4.334655e-01
4.585056e-01
4.397738e-01
4.647448e-01
4.185376e-01
4.397738e-01
4.267088e-01
4.478692e-01
4.397738e-01
4.647448e-01
4.478692e-01
4.727514e-01
4.267088e-01
4.478692e-01
4.366722e-01
4.577402e-01
4.478692e-01
4.727514e-01
4.577402e-01
4.825143e-01
4.366722e-01
4.577402e-01
4.484139e-01
4.693729e-01
4.577402e-01
4.825143e-01
4.693729e-01
4.940195e-01
4.484139e-01
4.693729e-01
4.619171e-01
4.827509e-01
4.693729e-01
4.940195e-01
4.827509e-01
5.072509e-01
4.619171e-01
4.827509e-01
4.771627e-01
4.978552e-01
4.827509e-01
5.072509e-01
4.978552e-01
5.221896e-01
4.771627e-01
4.978552e-01
4.941291e-01
5.146643e-01
4.978552e-01
5.221896e-01
5.146643e-01
5.388145e-01
4.941291e-01
5.146643e-01
5.127922e-01
5.331543e-01
5.146643e-01
5.388145e-01
5.331543e-01
5.571019e-01
5.127922e-01
5.331543e-01
5.331254e-01
5.532990e-01
5.331543e-01
5.571019e-01
5.532990e-01
5.770259e-01
5.331254e-01
5.532990e-01
5.550996e-01
5.750695e-01
5.532990e-01
5.770259e-01
5.750695e-01
5.985579e-01
5.550996e-01
5.750695e-01
5.786835e-01
5.984349e-01
5.750695e-01
5.985579e-01
5.984349e-01
6.216673e-01
5.786835e-01
5.984349e-01
6.038432e-01
6.233616e-01
5.984349e-01
6.216673e-01
6.233616e-01
6.463210e-01
6.038432e-01
6.233616e-01
6.305427e-01
6.498138e-01
6.233616e-01
6.463210e-01
6.498138e-01
6.724835e-01
6.305427e-01
6.498138e-01
6.587435e-01
6.777534e-01
6.498138e-01
6.724835e-01
6.777534e-01
7.001172e-01
6.587435e-01
6.777534e-01
6.884049e-01
7.071402e-01
6.777534e-01
7.001172e-01
7.071402e-01
7.291822e-01
6.884049e-01
7.071402e-01
7.194839e-01
7.379315e-01
7.071402e-01
7.291822e-01
7.379315e-01
7.596365e-01
7.194839e-01
7.379315e-01
7.519353e-01
7.700828e-01
7.379315e-01
7.596365e-01
7.700828e-01
7.914358e-01
7.519353e-01
7.700828e-01
7.857118e-01
8.035470e-01
7.700828e-01
7.914358e-01
8.035470e-01
8.245338e-01
7.857118e-01
8.035470e-01
8.207640e-01
8.382753e-01
8.035470e-01
8.245338e-01
8.382753e-01
8.588822e-01
8.207640e-01
8.382753e-01
8.570403e-01
8.742167e-01
8.382753e-01
8.588822e-01
8.742167e-01
8.944306e-01
8.570403e-01
8.742167e-01
8.944873e-01
9.113183e-01
8.742167e-01
8.944306e-01
9.113183e-01
9.311266e-01
8.944873e-01
9.113183e-01
9.330493e-01
9.495251e-01
9.113183e-01
9.311266e-01
9.495251e-01
9.689162e-01
9.330493e-01
9.495251e-01
9.726688e-01
9.887804e-01
9.495251e-01
9.689162e-01
9.887804e-01
1.007743e+00
9.726688e-01
9.887804e-01
1.013287e+00
1.029026e+00
9.887804e-01
1.007743e+00
1.029026e+00
1.047550e+00
1.013287e+00
1.029026e+00
1.054841e+00
1.070200e+00
1.029026e+00
1.047550e+00
1.070200e+00
1.088277e+00
1.054841e+00
1.070200e+00
1.097270e+00
1.112243e+00
1.070200e+00
1.088277e+00
1.112243e+00
1.129864e+00
1.097270e+00
1.112243e+00
1.140507e+00
1.155089e+00
1.112243e+00
1.129864e+00
1.155089e+00
1.172248e+00
1.140507e+00
1.155089e+00
1.184486e+00
1.198674e+00
1.155089e+00
1.172248e+00
1.198674e+00
1.215365e+00
1.184486e+00
1.198674e+00
1.229140e+00
1.242931e+00
1.198674e+00
1.215365e+00
1.242931e+00
1.259150e+00
1.229140e+00
1.242931e+00
1.274396e+00
1.287792e+00
1.242931e+00
1.259150e+00
1.287792e+00
1.303538e+00
1.274396e+00
1.287792e+00
1.320185e+00
1.333188e+00
1.287792e+00
1.303538e+00
1.333188e+00
1.348462e+00
1.320185e+00
1.333188e+00
1.366430e+00
1.379048e+00
1.333188e+00
1.348462e+00
1.379048e+00
1.393855e+00
1.366430e+00
1.379048e+00
1.413057e+00
1.425300e+00
1.379048e+00
1.393855e+00
1.425300e+00
1.439649e+00
1.413057e+00
1.425300e+00
1.459987e+00
1.471873e+00
1.425300e+00
1.439649e+00
1.471873e+00
1.485777e+00
1.459987e+00
1.471873e+00
1.507140e+00
1.518694e+00
1.471873e+00
1.485777e+00
1.518694e+00
1.532174e+00
1.507140e+00
1.518694e+00
1.554431e+00
1.565687e+00
1.518694e+00
1.532174e+00
1.565687e+00
1.578774e+00
1.554431e+00
1.565687e+00
1.601774e+00
1.612779e+00
1.565687e+00
1.578774e+00
1.612779e+00
1.625516e+00
1.601774e+00
1.612779e+00
1.649078e+00
1.659894e+00
1.612779e+00
1.625516e+00
1.659894e+00
1.672342e+00
1.649078e+00
1.659894e+00
1.696247e+00
1.706957e+00
1.659894e+00
1.672342e+00
1.706957e+00
1.719199e+00
1.696247e+00
1.706957e+00
1.743176e+00
1.753890e+00
1.706957e+00
1.719199e+00
1.753890e+00
1.766044e+00
1.743176e+00
1.753890e+00
1.789750e+00
1.800611e+00
1.753890e+00
1.766044e+00
1.800611e+00
1.812852e+00
1.789750e+00
1.800611e+00
1.835832e+00
1.847030e+00
1.800611e+00
1.812852e+00
1.847030e+00
1.859620e+00
1.835832e+00
1.847030e+00
1.881227e+00
1.892994e+00
1.847030e+00
1.859620e+00
1.892994e+00
1.906357e+00
1.881227e+00
1.892994e+00
1.925624e+00
1.938000e+00
1.892994e+00
1.906357e+00
1.938000e+00
1.952152e+00
1.925624e+00
1.938000e+00
1.967711e+00
1.980265e+00
1.938000e+00
1.952152e+00
1.980265e+00
1.994441e+00
1.967711e+00
1.980265e+00
2.006727e+00
2.019645e+00
1.980265e+00
1.994441e+00
2.019645e+00
2.034248e+00
2.006727e+00
2.019645e+00
2.042664e+00
2.056103e+00
2.019645e+00
2.034248e+00
2.056103e+00
2.071271e+00
2.042664e+00
2.056103e+00
2.075567e+00
2.089580e+00
2.056103e+00
2.071271e+00
2.089580e+00
2.105367e+00
2.075567e+00
2.089580e+00
2.105487e+00
2.120069e+00
2.089580e+00
2.105367e+00
2.120069e+00
2.136472e+00
2.105487e+00
2.120069e+00
2.132485e+00
2.147600e+00
2.120069e+00
2.136472e+00
2.147600e+00
2.164584e+00
2.132485e+00
2.147600e+00
2.156632e+00
2.172225e+00
2.147600e+00
2.164584e+00
2.172225e+00
2.189737e+00
2.156632e+00
2.172225e+00
2.178000e+00
2.194013e+00
2.172225e+00
2.189737e+00
2.194013e+00
2.211988e+00
2.178000e+00
2.194013e+00
2.196663e+00
2.213032e+00
2.194013e+00
2.211988e+00
2.213032e+00
2.231407e+00
2.196663e+00
2.213032e+00
2.212687e+00
2.229355e+00
2.213032e+00
2.231407e+00
2.229355e+00
2.248064e+00
2.212687e+00
2.229355e+00
2.226135e+00
2.243046e+00
2.229355e+00
2.248064e+00
2.243046e+00
2.262029e+00
2.226135e+00
2.243046e+00
2.237062e+00
2.254163e+00
2.243046e+00
2.262029e+00
2.254163e+00
2.273364e+00
2.237062e+00
2.254163e+00
2.245513e+00
2.262758e+00
2.254163e+00
2.273364e+00
2.262758e+00
2.282123e+00
2.245513e+00
2.262758e+00
2.251523e+00
2.268868e+00
2.262758e+00
2.282123e+00
2.268868e+00
2.288347e+00
2.251523e+00
2.268868e+00
2.255119e+00
2.272523e+00
2.268868e+00
2.288347e+00
2.272523e+00
2.292069e+00
2.255119e+00
2.272523e+00
2.256315e+00
2.273739e+00
2.272523e+00
2.292069e+00
2.273739e+00
2.293308e+00
</DataArray>
<DataArray type="Float32" Name="V3" format="ascii">
0.000000e+00
0.000000e+00
3.138562e-02
3.085133e-02
0.000000e+00
0.000000e+00
3.085133e-02
3.022509e-02
3.138562e-02
3.085133e-02
6.269857e-02
6.163053e-02
3.085133e-02
3.022509e-02
6.163053e-02
6.037864e-02
6.269857e-02
6.163053e-02
9.386578e-02
9.226521e-02
6.163053e-02
6.037864e-02
9.226521e-02
9.038911e-02
9.386578e-02
9.226521e-02
1.248146e-01
1.226833e-01
9.226521e-02
9.038911e-02
1.226833e-01
1.201852e-01
1.248146e-01
1.226833e-01
1.554727e-01
1.528131e-01
1.226833e-01
1.201852e-01
1.528131e-01
1.496957e-01
1.554727e-01
1.528131e-01
1.857679e-01
1.825831e-01
1.528131e-01
1.496957e-01
1.825831e-01
1.788499e-01
1.857679e-01
1.825831e-01
2.156287e-01
2.119222e-01
1.825831e-01
1.788499e-01
2.119222e-01
2.075775e-01
2.156287e-01
2.119222e-01
2.449838e-01
2.407599e-01
2.119222e-01
2.075775e-01
2.407599e-01
2.358085e-01
2.449838e-01
2.407599e-01
2.737627e-01
2.690261e-01
2.407599e-01
2.358085e-01
2.690261e-01
2.634737e-01
2.737627e-01
2.690261e-01
3.018955e-01
2.966515e-01
2.690261e-01
2.634737e-01
2.966515e-01
2.905042e-01
3.018955e-01
2.966515e-01
3.293130e-01
3.235675e-01
2.966515e-01
2.905042e-01
3.235675e-01
3.168323e-01
3.293130e-01
3.235675e-01
3.559468e-01
3.497063e-01
3.235675e-01
3.168323e-01
3.497063e-01
3.423907e-01
3.559468e-01
3.497063e-01
3.817294e-01
3.750010e-01
3.497063e-01
3.423907e-01
3.750010e-01
3.671132e-01
3.817294e-01
3.750010e-01
4.065945e-01
3.993856e-01
3.750010e-01
3.671132e-01
3.993856e-01
3.909344e-01
4.065945e-01
3.993856e-01
4.304766e-01
4.227952e-01
3.993856e-01
3.909344e-01
4.227952e-01
4.137900e-01
4.304766e-01
4.227952e-01
4.533113e-01
4.451662e-01
4.227952e-01
4.137900e-01
4.451662e-01
4.356169e-01
4.533113e-01
4.451662e-01
4.750357e-01
4.664358e-01
4.451662e-01
4.356169e-01
4.664358e-01
4.563531e-01
4.750357e-01
4.664358e-01
4.955880e-01
4.865428e-01
4.664358e-01
4.563531e-01
4.865428e-01
4.759378e-01
4.955880e-01
4.865428e-01
5.149076e-01
5.054273e-01
4.865428e-01
4.759378e-01
5.054273e-01
4.943118e-01
5.149076e-01
5.054273e-01
5.329357e-01
5.230307e-01
5.054273e-01
4.943118e-01
5.230307e-01
5.114170e-01
5.329357e-01
5.230307e-01
5.496147e-01
5.392960e-01
5.230307e-01
5.114170e-01
5.392960e-01
5.271969e-01
5.496147e-01
5.392960e-01
5.648888e-01
5.541678e-01
5.392960e-01
5.271969e-01
5.541678e-01
5.415966e-01
5.648888e-01
5.541678e-01
5.787037e-01
5.675923e-01
5.541678e-01
5.415966e-01
5.675923e-01
5.545630e-01
5.787037e-01
5.675923e-01
5.910068e-01
5.795173e-01
5.675923e-01
5.545630e-01
5.795173e-01
5.660443e-01
5.910068e-01
5.795173e-01
6.017473e-01
5.898926e-01
5.795173e-01
5.660443e-01
5.898926e-01
5.759910e-01
6.017473e-01
5.898926e-01
6.108763e-01
5.986697e-01
5.898926e-01
5.759910e-01
5.986697e-01
5.843550e-01
6.108763e-01
5.986697e-01
6.183467e-01
6.058020e-01
5.986697e-01
5.843550e-01
6.058020e-01
5.910904e-01
6.183467e-01
6.058020e-01
6.241135e-01
6.112449e-01
6.058020e-01
5.910904e-01
6.112449e-01
5.961534e-01
6.241135e-01
6.112449e-01
6.281334e-01
6.149559e-01
6.112449e-01
5.961534e-01
6.149559e-01
5.995020e-01
6.281334e-01
6.149559e-01
6.303655e-01
6.168946e-01
6.149559e-01
5.995020e-01
6.168946e-01
6.010967e-01
6.303655e-01
6.168946e-01
6.307707e-01
6.170227e-01
6.168946e-01
6.010967e-01
6.170227e-01
6.009000e-01
6.307707e-01
6.170227e-01
6.293121e-01
6.153040e-01
6.170227e-01
6.009000e-01
6.153040e-01
5.988770e-01
6.293121e-01
6.153040e-01
6.259551e-01
6.117048e-01
6.153040e-01
5.988770e-01
6.117048e-01
5.949951e-01
6.259551e-01
6.117048e-01
6.206669e-01
6.061937e-01
6.117048e-01
5.949951e-01
6.061937e-01
5.892245e-01
6.206669e-01
6.061937e-01
6.134171e-01
5.987414e-01
6.061937e-01
5.892245e-01
5.987414e-01
5.815377e-01
6.134171e-01
5.987414e-01
6.041774e-01
5.893213e-01
5.987414e-01
5.815377e-01
5.893213e-01
5.719104e-01
6.041774e-01
5.893213e-01
5.929217e-01
5.779090e-01
5.893213e-01
5.719104e-01
5.779090e-01
5.603210e-01
5.929217e-01
5.779090e-01
5.796257e-01
5.644828e-01
5.779090e-01
5.603210e-01
5.644828e-01
5.467513e-01
5.796257e-01
5.644828e-01
5.642675e-01
5.490233e-01
5.644828e-01
5.467513e-01
5.490233e-01
5.311861e-01
5.642675e-01
5.490233e-01
5.468268e-01
5.315135e-01
5.490233e-01
5.311861e-01
5.315135e-01
5.136140e-01
5.468268e-01
5.315135e-01
5.272853e-01
5.119389e-01
5.315135e-01
5.136140e-01
5.119389e-01
4.940275e-01
5.272853e-01
5.119389e-01
5.056268e-01
4.902873e-01
5.119389e-01
4.940275e-01
4.902873e-01
4.724233e-01
5.056268e-01
4.902873e-01
4.818370e-01
4.665490e-01
4.902873e-01
4.724233e-01
4.665490e-01
4.488035e-01
4.818370e-01
4.665490e-01
4.559051e-01
4.407177e-01
4.665490e-01
4.488035e-01
4.407177e-01
4.231772e-01
4.559051e-01
4.407177e-01
4.278267e-01
4.127936e-01
4.407177e-01
4.231772e-01
4.127936e-01
3.955631e-01
4.278267e-01
4.127936e-01
3.976301e-01
3.828047e-01
4.127936e-01
3.955631e-01
3.828047e-01
3.659783e-01
3.976301e-01
3.828047e-01
3.655968e-01
3.509992e-01
3.828047e-01
3.659783e-01
3.509992e-01
3.341139e-01
3.655968e-01
3.509992e-01
3.344408e-01
3.204501e-01
3.509992e-01
3.341139e-01
3.204501e-01
3.044169e-01
3.344408e-01
3.204501e-01
3.054340e-01
2.921499e-01
3.204501e-01
3.044169e-01
2.921499e-01
2.770683e-01
3.054340e-01
2.921499e-01
2.783078e-01
2.658142e-01
2.921499e-01
2.770683e-01
2.658142e-01
2.517287e-01
2.783078e-01
2.658142e-01
2.527373e-01
2.411110e-01
2.658142e-01
2.517287e-01
2.411110e-01
2.280678e-01
2.527373e-01
2.411110e-01
2.284524e-01
2.177527e-01
2.411110e-01
2.280678e-01
2.177527e-01
2.057895e-01
2.284524e-01
2.177527e-01
2.052206e-01
1.954880e-01
2.177527e-01
2.057895e-01
1.954880e-01
1.846312e-01
2.052206e-01
1.954880e-01
1.828451e-01
1.741030e-01
1.954880e-01
1.846312e-01
1.741030e-01
1.643668e-01
1.828451e-01
1.741030e-01
1.611606e-01
1.534191e-01
1.741030e-01
1.643668e-01
1.534191e-01
1.448069e-01
1.611606e-01
1.534191e-01
1.400295e-01
1.332887e-01
1.534191e-01
1.448069e-01
1.332887e-01
1.257954e-01
1.400295e-01
1.332887e-01
1.193373e-01
1.135905e-01
1.332887e-01
1.257954e-01
1.135905e-01
1.072054e-01
1.193373e-01
1.135905e-01
9.898881e-02
9.422548e-02
1.135905e-01
1.072054e-01
9.422548e-02
8.893485e-02
9.898881e-02
9.422548e-02
7.890463e-02
7.511278e-02
9.422548e-02
8.893485e-02
7.511278e-02
7.090203e-02
7.890463e-02
7.511278e-02
5.901779e-02
5.618578e-02
7.511278e-02
7.090203e-02
5.618578e-02
5.304129e-02
5.901779e-02
5.618578e-02
3.927093e-02
3.738889e-02
5.618578e-02
5.304129e-02
3.738889e-02
3.529933e-02
3.927093e-02
3.738889e-02
1.961363e-02
1.867447e-02
3.738889e-02
3.529933e-02
1.867447e-02
1.763177e-02
1.961363e-02
1.867447e-02
0.000000e+00
0.000000e+00
1.867447e-02
1.763177e-02
0.000000e+00
0.000000e+00
</DataArray>
<DataArray type="Float32" Name="V4" format="ascii">
8.500000e-01
9.250000e-01
8.500000e-01
9.250000e-01
9.250000e-01
1.000000e+00