<?xml version="1.0"?>
<VTKFile type="UnstructuredGrid" version="0.1" byte_order="LittleEndian" compressor="vtkZLibDataCompressor">
<UnstructuredGrid>
<Piece NumberOfPoints="504" NumberOfCells="126">
<Points>
<DataArray type="Float32" NumberOfComponents="3" format="ascii">
0.000000e+00 8.275850e-01 0.000000e+00
0.000000e+00 8.769570e-01 0.000000e+00
2.729254e-02 8.276002e-01 0.000000e+00
2.728148e-02 8.769671e-01 0.000000e+00
0.000000e+00 8.769570e-01 0.000000e+00
0.000000e+00 9.350000e-01 0.000000e+00
2.728148e-02 8.769671e-01 0.000000e+00
2.728973e-02 9.350000e-01 0.000000e+00
2.729254e-02 8.276002e-01 0.000000e+00
2.728148e-02 8.769671e-01 0.000000e+00
5.458322e-02 8.276428e-01 0.000000e+00
5.456407e-02 8.769974e-01 0.000000e+00
2.728148e-02 8.769671e-01 0.000000e+00
2.728973e-02 9.350000e-01 0.000000e+00
5.456407e-02 8.769974e-01 0.000000e+00
5.458318e-02 9.350000e-01 0.000000e+00
5.458322e-02 8.276428e-01 0.000000e+00
5.456407e-02 8.769974e-01 0.000000e+00
8.186976e-02 8.277145e-01 0.000000e+00
8.184901e-02 8.770489e-01 0.000000e+00
5.456407e-02 8.769974e-01 0.000000e+00
5.458318e-02 9.350000e-01 0.000000e+00
8.184901e-02 8.770489e-01 0.000000e+00
8.188447e-02 9.350000e-01 0.000000e+00
8.186976e-02 8.277145e-01 0.000000e+00
8.184901e-02 8.770489e-01 0.000000e+00
1.091495e-01 8.278161e-01 0.000000e+00
1.091377e-01 8.771232e-01 0.000000e+00
8.184901e-02 8.770489e-01 0.000000e+00
8.188447e-02 9.350000e-01 0.000000e+00
1.091377e-01 8.771232e-01 0.000000e+00
1.091984e-01 9.350000e-01 0.000000e+00
1.091495e-01 8.278161e-01 0.000000e+00
1.091377e-01 8.771232e-01 0.000000e+00
1.364189e-01 8.279488e-01 0.000000e+00
1.364318e-01 8.772225e-01 0.000000e+00
1.091377e-01 8.771232e-01 0.000000e+00
1.091984e-01 9.350000e-01 0.000000e+00
1.364318e-01 8.772225e-01 0.000000e+00
1.365308e-01 9.350000e-01 0.000000e+00
1.364189e-01 8.279488e-01 0.000000e+00
1.364318e-01 8.772225e-01 0.000000e+00
1.636732e-01 8.281141e-01 0.000000e+00
1.637333e-01 8.773498e-01 0.000000e+00
1.364318e-01 8.772225e-01 0.000000e+00
1.365308e-01 9.350000e-01 0.000000e+00
1.637333e-01 8.773498e-01 0.000000e+00
1.638891e-01 9.350000e-01 0.000000e+00
1.636732e-01 8.281141e-01 0.000000e+00
1.637333e-01 8.773498e-01 0.000000e+00
1.909061e-01 8.283133e-01 0.000000e+00
1.910445e-01 8.775086e-01 0.000000e+00
1.637333e-01 8.773498e-01 0.000000e+00
1.638891e-01 9.350000e-01 0.000000e+00
1.910445e-01 8.775086e-01 0.000000e+00
1.912825e-01 9.350000e-01 0.000000e+00
1.909061e-01 8.283133e-01 0.000000e+00
1.910445e-01 8.775086e-01 0.000000e+00
2.181086e-01 8.285472e-01 0.000000e+00
2.183684e-01 8.777029e-01 0.000000e+00
1.910445e-01 8.775086e-01 0.000000e+00
1.912825e-01 9.350000e-01 0.000000e+00
2.183684e-01 8.777029e-01 0.000000e+00
2.187228e-01 9.350000e-01 0.000000e+00
2.181086e-01 8.285472e-01 0.000000e+00
2.183684e-01 8.777029e-01 0.000000e+00
2.452689e-01 8.288156e-01 0.000000e+00
2.457077e-01 8.779366e-01 0.000000e+00
2.183684e-01 8.777029e-01 0.000000e+00
2.187228e-01 9.350000e-01 0.000000e+00
2.457077e-01 8.779366e-01 0.000000e+00
2.462244e-01 9.350000e-01 0.000000e+00
2.452689e-01 8.288156e-01 0.000000e+00
2.457077e-01 8.779366e-01 0.000000e+00
2.723709e-01 8.291157e-01 0.000000e+00
2.730652e-01 8.782132e-01 0.000000e+00
2.457077e-01 8.779366e-01 0.000000e+00
2.462244e-01 9.350000e-01 0.000000e+00
2.730652e-01 8.782132e-01 0.000000e+00
2.738049e-01 9.350000e-01 0.000000e+00
2.723709e-01 8.291157e-01 0.000000e+00
2.730652e-01 8.782132e-01 0.000000e+00
2.993932e-01 8.294407e-01 0.000000e+00
3.004422e-01 8.785335e-01 0.000000e+00
2.730652e-01 8.782132e-01 0.000000e+00
2.738049e-01 9.350000e-01 0.000000e+00
3.004422e-01 8.785335e-01 0.000000e+00
3.014852e-01 9.350000e-01 0.000000e+00
2.993932e-01 8.294407e-01 0.000000e+00
3.004422e-01 8.785335e-01 0.000000e+00
3.263082e-01 8.297758e-01 0.000000e+00
3.278371e-01 8.788936e-01 0.000000e+00
3.004422e-01 8.785335e-01 0.000000e+00
3.014852e-01 9.350000e-01 0.000000e+00
3.278371e-01 8.788936e-01 0.000000e+00
3.292881e-01 9.350000e-01 0.000000e+00
3.263082e-01 8.297758e-01 0.000000e+00
3.278371e-01 8.788936e-01 0.000000e+00
3.530806e-01 8.300937e-01 0.000000e+00
3.552407e-01 8.792795e-01 0.000000e+00
3.278371e-01 8.788936e-01 0.000000e+00
3.292881e-01 9.350000e-01 0.000000e+00
3.552407e-01 8.792795e-01 0.000000e+00
3.572369e-01 9.350000e-01 0.000000e+00
3.530806e-01 8.300937e-01 0.000000e+00
3.552407e-01 8.792795e-01 0.000000e+00
3.796672e-01 8.303459e-01 0.000000e+00
3.826297e-01 8.796580e-01 0.000000e+00
3.552407e-01 8.792795e-01 0.000000e+00
3.572369e-01 9.350000e-01 0.000000e+00
3.826297e-01 8.796580e-01 0.000000e+00
3.853509e-01 9.350000e-01 0.000000e+00
3.796672e-01 8.303459e-01 0.000000e+00
3.826297e-01 8.796580e-01 0.000000e+00
4.060171e-01 8.304516e-01 0.000000e+00
4.099536e-01 8.799603e-01 0.000000e+00
3.826297e-01 8.796580e-01 0.000000e+00
3.853509e-01 9.350000e-01 0.000000e+00
4.099536e-01 8.799603e-01 0.000000e+00
4.136375e-01 9.350000e-01 0.000000e+00
4.060171e-01 8.304516e-01 0.000000e+00
4.099536e-01 8.799603e-01 0.000000e+00
4.320677e-01 8.302724e-01 0.000000e+00
4.371172e-01 8.800376e-01 0.000000e+00
4.099536e-01 8.799603e-01 0.000000e+00
4.136375e-01 9.350000e-01 0.000000e+00
4.371172e-01 8.800376e-01 0.000000e+00
4.420824e-01 9.350000e-01 0.000000e+00
4.320677e-01 8.302724e-01 0.000000e+00
4.371172e-01 8.800376e-01 0.000000e+00
4.577694e-01 8.296205e-01 0.000000e+00
4.640361e-01 8.796629e-01 0.000000e+00
4.371172e-01 8.800376e-01 0.000000e+00
4.420824e-01 9.350000e-01 0.000000e+00
4.640361e-01 8.796629e-01 0.000000e+00
4.705123e-01 9.350000e-01 0.000000e+00
4.577694e-01 8.296205e-01 0.000000e+00
4.640361e-01 8.796629e-01 0.000000e+00
4.831513e-01 8.281956e-01 0.000000e+00
4.907551e-01 8.783516e-01 0.000000e+00
4.640361e-01 8.796629e-01 0.000000e+00
4.705123e-01 9.350000e-01 0.000000e+00
4.907551e-01 8.783516e-01 0.000000e+00
4.986465e-01 9.336053e-01 0.000000e+00
4.831513e-01 8.281956e-01 0.000000e+00
4.907551e-01 8.783516e-01 0.000000e+00
5.081504e-01 8.257841e-01 0.000000e+00
5.171906e-01 8.758194e-01 0.000000e+00
4.907551e-01 8.783516e-01 0.000000e+00
4.986465e-01 9.336053e-01 0.000000e+00
5.171906e-01 8.758194e-01 0.000000e+00
5.268295e-01 9.302858e-01 0.000000e+00
5.081504e-01 8.257841e-01 0.000000e+00
5.171906e-01 8.758194e-01 0.000000e+00
5.328227e-01 8.222614e-01 0.000000e+00
5.434621e-01 8.719902e-01 0.000000e+00
5.171906e-01 8.758194e-01 0.000000e+00
5.268295e-01 9.302858e-01 0.000000e+00
5.434621e-01 8.719902e-01 0.000000e+00
5.549925e-01 9.256131e-01 0.000000e+00
5.328227e-01 8.222614e-01 0.000000e+00
5.434621e-01 8.719902e-01 0.000000e+00
5.571941e-01 8.175940e-01 0.000000e+00
5.695654e-01 8.668657e-01 0.000000e+00
5.434621e-01 8.719902e-01 0.000000e+00
5.549925e-01 9.256131e-01 0.000000e+00
5.695654e-01 8.668657e-01 0.000000e+00
5.830191e-01 9.196277e-01 0.000000e+00
5.571941e-01 8.175940e-01 0.000000e+00
5.695654e-01 8.668657e-01 0.000000e+00
5.812720e-01 8.118015e-01 0.000000e+00
5.954469e-01 8.604952e-01 0.000000e+00
5.695654e-01 8.668657e-01 0.000000e+00
5.830191e-01 9.196277e-01 0.000000e+00
5.954469e-01 8.604952e-01 0.000000e+00
6.108284e-01 9.123788e-01 0.000000e+00
5.812720e-01 8.118015e-01 0.000000e+00
5.954469e-01 8.604952e-01 0.000000e+00
6.050519e-01 8.049152e-01 0.000000e+00
6.210493e-01 8.529272e-01 0.000000e+00
5.954469e-01 8.604952e-01 0.000000e+00
6.108284e-01 9.123788e-01 0.000000e+00
6.210493e-01 8.529272e-01 0.000000e+00
6.383443e-01 9.039068e-01 0.000000e+00
6.050519e-01 8.049152e-01 0.000000e+00
6.210493e-01 8.529272e-01 0.000000e+00
6.285196e-01 7.969715e-01 0.000000e+00
6.463227e-01 8.442127e-01 0.000000e+00
6.210493e-01 8.529272e-01 0.000000e+00
6.383443e-01 9.039068e-01 0.000000e+00
6.463227e-01 8.442127e-01 0.000000e+00
6.655015e-01 8.942561e-01 0.000000e+00
6.285196e-01 7.969715e-01 0.000000e+00
6.463227e-01 8.442127e-01 0.000000e+00
6.516562e-01 7.880080e-01 0.000000e+00
6.712253e-01 8.344021e-01 0.000000e+00
6.463227e-01 8.442127e-01 0.000000e+00
6.655015e-01 8.942561e-01 0.000000e+00
6.712253e-01 8.344021e-01 0.000000e+00
6.922450e-01 8.834746e-01 0.000000e+00
6.516562e-01 7.880080e-01 0.000000e+00
6.712253e-01 8.344021e-01 0.000000e+00
6.744402e-01 7.780626e-01 0.000000e+00
6.957214e-01 8.235451e-01 0.000000e+00
6.712253e-01 8.344021e-01 0.000000e+00
6.922450e-01 8.834746e-01 0.000000e+00
6.957214e-01 8.235451e-01 0.000000e+00
7.185296e-01 8.716115e-01 0.000000e+00
6.744402e-01 7.780626e-01 0.000000e+00
6.957214e-01 8.235451e-01 0.000000e+00
6.968493e-01 7.671728e-01 0.000000e+00
7.197806e-01 8.116894e-01 0.000000e+00
6.957214e-01 8.235451e-01 0.000000e+00
7.185296e-01 8.716115e-01 0.000000e+00
7.197806e-01 8.116894e-01 0.000000e+00
7.443179e-01 8.587160e-01 0.000000e+00
6.968493e-01 7.671728e-01 0.000000e+00
7.197806e-01 8.116894e-01 0.000000e+00
7.188612e-01 7.553756e-01 0.000000e+00
7.433764e-01 7.988810e-01 0.000000e+00
7.197806e-01 8.116894e-01 0.000000e+00
7.443179e-01 8.587160e-01 0.000000e+00
7.433764e-01 7.988810e-01 0.000000e+00
7.695791e-01 8.448364e-01 0.000000e+00
7.188612e-01 7.553756e-01 0.000000e+00
7.433764e-01 7.988810e-01 0.000000e+00
7.404542e-01 7.427074e-01 0.000000e+00
7.664854e-01 7.851638e-01 0.000000e+00
7.433764e-01 7.988810e-01 0.000000e+00
7.695791e-01 8.448364e-01 0.000000e+00
7.664854e-01 7.851638e-01 0.000000e+00
7.942876e-01 8.300192e-01 0.000000e+00
7.404542e-01 7.427074e-01 0.000000e+00
7.664854e-01 7.851638e-01 0.000000e+00
7.616076e-01 7.292039e-01 0.000000e+00
7.890868e-01 7.705796e-01 0.000000e+00
7.664854e-01 7.851638e-01 0.000000e+00
7.942876e-01 8.300192e-01 0.000000e+00
7.890868e-01 7.705796e-01 0.000000e+00
8.184219e-01 8.143089e-01 0.000000e+00
7.616076e-01 7.292039e-01 0.000000e+00
7.890868e-01 7.705796e-01 0.000000e+00
7.823017e-01 7.148996e-01 0.000000e+00
8.111620e-01 7.551681e-01 0.000000e+00
7.890868e-01 7.705796e-01 0.000000e+00
8.184219e-01 8.143089e-01 0.000000e+00
8.111620e-01 7.551681e-01 0.000000e+00
8.419638e-01 7.977477e-01 0.000000e+00
7.823017e-01 7.148996e-01 0.000000e+00
[...]
<PointData>
<DataArray type="Float32" Name="V1" format="ascii">
1.350752e+01
4.988633e+00
1.351169e+01
4.992801e+00
5.259990e+00
6.249006e-01
5.263892e+00
6.288021e-01
1.351170e+01
4.992639e+00
1.352194e+01
5.002879e+00
5.264737e+00
6.279612e-01
5.274528e+00
6.377522e-01
1.352206e+01
5.002870e+00
1.353886e+01
5.019667e+00
5.276400e+00
6.363295e-01
5.293094e+00
6.530237e-01
1.353789e+01
5.020503e+00
1.356046e+01
5.043071e+00
5.295666e+00
6.508934e-01
5.319794e+00
6.750208e-01
1.355710e+01
5.046045e+00
1.358428e+01
5.073221e+00
5.322811e+00
6.722637e-01
5.355206e+00
7.046585e-01
1.357659e+01
5.080264e+00
1.360676e+01
5.110433e+00
5.358272e+00
7.013991e-01
5.400221e+00
7.433487e-01
1.359195e+01
5.124303e+00
1.362293e+01
5.155290e+00
5.402731e+00
7.397849e-01
5.456152e+00
7.932059e-01
1.359716e+01
5.179820e+00
1.362612e+01
5.208779e+00
5.457200e+00
7.896532e-01
5.524919e+00
8.573719e-01
1.358420e+01
5.249189e+00
1.360751e+01
5.272495e+00
5.523138e+00
8.543511e-01
5.609289e+00
9.405021e-01
1.354271e+01
5.335727e+00
1.355587e+01
5.348891e+00
5.602583e+00
9.388987e-01
5.713206e+00
1.049521e+00
1.345971e+01
5.443908e+00
1.345741e+01
5.441612e+00
5.698283e+00
1.050902e+00
5.842205e+00
1.194824e+00
1.331976e+01
5.579498e+00
1.329613e+01
5.555859e+00
5.813732e+00
1.202054e+00
6.003922e+00
1.392244e+00
1.310593e+01
5.749427e+00
1.305527e+01
5.698775e+00
5.952961e+00
1.410741e+00
6.208620e+00
1.666400e+00
1.280226e+01
5.961107e+00
1.272085e+01
5.879696e+00
6.119613e+00
1.706689e+00
6.469470e+00
2.056546e+00
1.239869e+01
6.221728e+00
1.228741e+01
6.110442e+00
6.313636e+00
2.140296e+00
6.800514e+00
2.627175e+00
1.190276e+01
6.533825e+00
1.176875e+01
6.399815e+00
6.520385e+00
2.799557e+00
7.210837e+00
3.490009e+00
1.132542e+01
6.914203e+00
1.120108e+01
6.789858e+00
6.613100e+00
3.926876e+00
7.577229e+00
4.891005e+00
1.073392e+01
7.387466e+00
1.062517e+01
7.278715e+00
6.774718e+00
5.639826e+00
7.521223e+00
6.386332e+00
1.027390e+01
7.664404e+00
1.020415e+01
7.594654e+00
7.321970e+00
6.432156e+00
7.692679e+00
6.802865e+00
9.948434e+00
7.862038e+00
9.924026e+00
7.837630e+00
7.623105e+00
6.830629e+00
7.911228e+00
7.118752e+00
9.756066e+00
8.015488e+00
9.773115e+00
8.032537e+00
7.839032e+00
7.158087e+00
8.078531e+00
7.397586e+00
9.669292e+00
8.146726e+00
9.724253e+00
8.201687e+00
8.023827e+00
7.430792e+00
8.230762e+00
7.637727e+00
9.661024e+00
8.273019e+00
9.745111e+00
8.357106e+00
8.192909e+00
7.661609e+00
8.374414e+00
7.843115e+00
9.708981e+00
8.398441e+00
9.813714e+00
8.503175e+00
8.352182e+00
7.857154e+00
8.512745e+00
8.017718e+00
9.796328e+00
8.523158e+00
9.914814e+00
8.641644e+00
8.503412e+00
8.023209e+00
8.646338e+00
8.166135e+00
9.910855e+00
8.646120e+00
1.003780e+01
8.773061e+00
8.647051e+00
8.164848e+00
8.774985e+00
8.292781e+00
1.004363e+01
8.766191e+00
1.017503e+01
8.897599e+00
8.783186e+00
8.286428e+00
8.898300e+00
8.401542e+00
1.018802e+01
8.882458e+00
1.032092e+01
9.015360e+00
8.911885e+00
8.391575e+00
9.015976e+00
8.495667e+00
1.033909e+01
8.994278e+00
1.047129e+01
9.126477e+00
9.033286e+00
8.483239e+00
9.127842e+00
8.577795e+00
1.049312e+01
9.101247e+00
1.062301e+01
9.231137e+00
9.147601e+00
8.563791e+00
9.233855e+00
8.650044e+00
1.064731e+01
9.203143e+00
1.077374e+01
9.329572e+00
9.255097e+00
8.635127e+00
9.334071e+00
8.714101e+00
1.079961e+01
9.299883e+00
1.092177e+01
9.422046e+00
9.356073e+00
8.698762e+00
9.428620e+00
8.771309e+00
1.094848e+01
9.391486e+00
1.106583e+01
9.508840e+00
9.450847e+00
8.755907e+00
9.517681e+00
8.822741e+00
1.109284e+01
9.478036e+00
1.120504e+01
9.590238e+00
9.539742e+00
8.807533e+00
9.601462e+00
8.869254e+00
1.123192e+01
9.559666e+00
1.133878e+01
9.666527e+00
9.623074e+00
8.854422e+00
9.680189e+00
8.911537e+00
1.136521e+01
9.636540e+00
1.146665e+01
9.737982e+00
9.701151e+00
8.897208e+00
9.754092e+00
8.950149e+00
1.149240e+01
9.708839e+00
1.158843e+01
9.804870e+00
9.774270e+00
8.936404e+00
9.823406e+00
8.985541e+00
1.161332e+01
9.776756e+00
1.170401e+01
9.867442e+00
9.842708e+00
8.972433e+00
9.888358e+00
9.018083e+00
1.172792e+01
9.840485e+00
1.181337e+01
9.925936e+00
9.906731e+00
9.005642e+00
9.949169e+00
9.048080e+00
1.183623e+01
9.900221e+00
1.191659e+01
9.980577e+00
9.966584e+00
9.036317e+00
1.000605e+01
9.075784e+00
1.193834e+01
9.956152e+00
1.201376e+01
1.003157e+01
1.002250e+01
9.064699e+00
1.005921e+01
9.101406e+00
1.203437e+01
1.000846e+01
1.210503e+01
1.007912e+01
1.007469e+01
9.090991e+00
1.010882e+01
9.125122e+00
1.212449e+01
1.005733e+01
1.219056e+01
1.012339e+01
1.012336e+01
9.115362e+00
1.015508e+01
9.147082e+00
1.220888e+01
1.010291e+01
1.227053e+01
1.016456e+01
1.016868e+01
9.137960e+00
1.019814e+01
9.167413e+00
1.228772e+01
1.014537e+01
1.234513e+01
1.020279e+01
1.021084e+01
9.158909e+00
1.023816e+01
9.186226e+00
1.236120e+01
1.018486e+01
1.241454e+01
1.023820e+01
1.024999e+01
9.178318e+00
1.027529e+01
9.203615e+00
1.242952e+01
1.022151e+01
1.247895e+01
1.027094e+01
1.028628e+01
9.196280e+00
1.030966e+01
9.219663e+00
1.249286e+01
1.025545e+01
1.253854e+01
1.030113e+01
1.031983e+01
9.212879e+00
1.034139e+01
9.234440e+00
1.255142e+01
1.028680e+01
1.259348e+01
1.032887e+01
1.035077e+01
9.228187e+00
1.037060e+01
9.248010e+00
1.260535e+01
1.031568e+01
1.264394e+01
1.035427e+01
1.037922e+01
9.242268e+00
1.039739e+01
9.260429e+00
1.265483e+01
1.034217e+01
1.269007e+01
1.037741e+01
1.040528e+01
9.255177e+00
1.042185e+01
9.271745e+00
1.270001e+01
1.036638e+01
1.273201e+01
1.039838e+01
1.042904e+01
9.266966e+00
1.044407e+01
9.282002e+00
1.274102e+01
1.038838e+01
1.276990e+01
1.041726e+01
1.045058e+01
9.277679e+00
1.046414e+01
9.291236e+00
1.277801e+01
1.040826e+01
1.280385e+01
1.043411e+01
1.046999e+01
9.287354e+00
1.048211e+01
9.299482e+00
1.281109e+01
1.042609e+01
1.283398e+01
1.044898e+01
1.048732e+01
9.296027e+00
1.049806e+01
9.306768e+00
1.284036e+01
1.044192e+01
1.286038e+01
1.046195e+01
1.050264e+01
9.303728e+00
1.051204e+01
9.313120e+00
1.286592e+01
1.045581e+01
1.288314e+01
1.047303e+01
1.051601e+01
9.310483e+00
1.052409e+01
9.318559e+00
1.288786e+01
1.046781e+01
1.290233e+01
1.048229e+01
1.052747e+01
9.316317e+00
1.053426e+01
9.323104e+00
1.290624e+01
1.047796e+01
1.291802e+01
1.048974e+01
1.053706e+01
9.321248e+00
1.054258e+01
9.326770e+00
1.292113e+01
1.048629e+01
1.293025e+01
1.049541e+01
1.054481e+01
9.325293e+00
1.054908e+01
9.329569e+00
1.293257e+01
1.049284e+01
1.293907e+01
1.049933e+01
1.055075e+01
9.328465e+00
1.055379e+01
9.331509e+00
1.294061e+01
1.049762e+01
1.294450e+01
1.050151e+01
1.055490e+01
9.330776e+00
1.055672e+01
9.332598e+00
1.294527e+01
1.050065e+01
1.294657e+01
1.050195e+01
1.055727e+01
9.332232e+00
1.055788e+01
9.332839e+00
</DataArray>
<DataArray type="Float32" Name="V2" format="ascii">
8.275850e-01
8.769570e-01
8.280234e-01
8.773747e-01
8.769570e-01
9.350000e-01
8.773747e-01
9.353897e-01
8.280234e-01
8.773747e-01
8.293347e-01
8.786270e-01
8.773747e-01
9.353897e-01
8.786270e-01
9.365585e-01
8.293347e-01
8.786270e-01
8.315182e-01
8.807131e-01
8.786270e-01
9.365585e-01
8.807131e-01
9.385048e-01
8.315182e-01
8.807131e-01
8.345703e-01
8.836312e-01
8.807131e-01
9.385048e-01
8.836312e-01
9.412264e-01
8.345703e-01
8.836312e-01
8.384861e-01
8.873790e-01
8.836312e-01
9.412264e-01
8.873790e-01
9.447204e-01
8.384861e-01
8.873790e-01
8.432590e-01
8.919537e-01
8.873790e-01
9.447204e-01
8.919537e-01
9.489832e-01
8.432590e-01
8.919537e-01
8.488798e-01
8.973518e-01
8.919537e-01
9.489832e-01
8.973518e-01
9.540111e-01
8.488798e-01
8.973518e-01
8.553365e-01
9.035691e-01
8.973518e-01
9.540111e-01
9.035691e-01
9.598003e-01
8.553365e-01
9.035691e-01
8.626129e-01
9.106000e-01
9.035691e-01
9.598003e-01
9.106000e-01
9.663477e-01
8.626129e-01
9.106000e-01
8.706868e-01
9.184373e-01
9.106000e-01
9.663477e-01
9.184373e-01
9.736507e-01
8.706868e-01
9.184373e-01
8.795276e-01
9.270696e-01
9.184373e-01
9.736507e-01
9.270696e-01
9.817081e-01
8.795276e-01
9.270696e-01
8.890922e-01
9.364785e-01
9.270696e-01
9.817081e-01
9.364785e-01
9.905199e-01
8.890922e-01
9.364785e-01
8.993199e-01
9.466325e-01
9.364785e-01
9.905199e-01
9.466325e-01
1.000087e+00
8.993199e-01
9.466325e-01
9.101237e-01
9.574752e-01
9.466325e-01
1.000087e+00
9.574752e-01
1.010410e+00
9.101237e-01
9.574752e-01
9.213803e-01
9.689048e-01
9.574752e-01
1.010410e+00
9.689048e-01
1.021486e+00
9.213803e-01
9.689048e-01
9.329064e-01
9.807253e-01
9.689048e-01
1.021486e+00
9.807253e-01
1.033300e+00
9.329064e-01
9.807253e-01
9.444786e-01
9.926699e-01
9.807253e-01
1.033300e+00
9.926699e-01
1.045774e+00
9.444786e-01
9.926699e-01
9.558099e-01
1.004298e+00
9.926699e-01
1.045774e+00
1.004298e+00
1.057504e+00
9.558099e-01
1.004298e+00
9.666656e-01
1.015315e+00
1.004298e+00
1.057504e+00
1.015315e+00
1.068180e+00
9.666656e-01
1.015315e+00
9.769523e-01
1.025713e+00
1.015315e+00
1.068180e+00
1.025713e+00
1.078321e+00
9.769523e-01
1.025713e+00
9.866542e-01
1.035510e+00
1.025713e+00
1.078321e+00
1.035510e+00
1.087931e+00
9.866542e-01
1.035510e+00
9.957985e-01
1.044740e+00
1.035510e+00
1.087931e+00
1.044740e+00
1.097032e+00
9.957985e-01
1.044740e+00
1.004418e+00
1.053429e+00
1.044740e+00
1.097032e+00
1.053429e+00
1.105636e+00
1.004418e+00
1.053429e+00
1.012546e+00
1.061608e+00
1.053429e+00
1.105636e+00
1.061608e+00
1.113759e+00
1.012546e+00
1.061608e+00
1.020214e+00
1.069306e+00
1.061608e+00
1.113759e+00
1.069306e+00
1.121420e+00
1.020214e+00
1.069306e+00
1.027449e+00
1.076554e+00
1.069306e+00
1.121420e+00
1.076554e+00
1.128641e+00
1.027449e+00
1.076554e+00
1.034278e+00
1.083380e+00
1.076554e+00
1.128641e+00
1.083380e+00
1.135446e+00
1.034278e+00
1.083380e+00
1.040726e+00
1.089812e+00
1.083380e+00
1.135446e+00
1.089812e+00
1.141858e+00
1.040726e+00
1.089812e+00
1.046816e+00
1.095874e+00
1.089812e+00
1.141858e+00
1.095874e+00
1.147902e+00
1.046816e+00
1.095874e+00
1.052569e+00
1.101590e+00
1.095874e+00
1.147902e+00
1.101590e+00
1.153599e+00
1.052569e+00
1.101590e+00
1.058005e+00
1.106983e+00
1.101590e+00
1.153599e+00
1.106983e+00
1.158971e+00
1.058005e+00
1.106983e+00
1.063142e+00
1.112072e+00
1.106983e+00
1.158971e+00
1.112072e+00
1.164039e+00
1.063142e+00
1.112072e+00
1.067997e+00
1.116876e+00
1.112072e+00
1.164039e+00
1.116876e+00
1.168819e+00
1.067997e+00
1.116876e+00
1.072586e+00
1.121412e+00
1.116876e+00
1.168819e+00
1.121412e+00
1.173331e+00
1.072586e+00
1.121412e+00
1.076923e+00
1.125695e+00
1.121412e+00
1.173331e+00
1.125695e+00
1.177588e+00
1.076923e+00
1.125695e+00
1.081021e+00
1.129739e+00
1.125695e+00
1.177588e+00
1.129739e+00
1.181606e+00
1.081021e+00
1.129739e+00
1.084893e+00
1.133557e+00
1.129739e+00
1.181606e+00
1.133557e+00
1.185398e+00
1.084893e+00
1.133557e+00
1.088549e+00
1.137160e+00
1.133557e+00
1.185398e+00
1.137160e+00
1.188974e+00
1.088549e+00
1.137160e+00
1.092000e+00
1.140559e+00
1.137160e+00
1.188974e+00
1.140559e+00
1.192347e+00
1.092000e+00
1.140559e+00
1.095255e+00
1.143764e+00
1.140559e+00
1.192347e+00
1.143764e+00
1.195526e+00
1.095255e+00
1.143764e+00
1.098323e+00
1.146784e+00
1.143764e+00
1.195526e+00
1.146784e+00
1.198520e+00
1.098323e+00
1.146784e+00
1.101211e+00
1.149626e+00
1.146784e+00
1.198520e+00
1.149626e+00
1.201336e+00
1.101211e+00
1.149626e+00
1.103927e+00
1.152297e+00
1.149626e+00
1.201336e+00
1.152297e+00
1.203983e+00
1.103927e+00
1.152297e+00
1.106476e+00
1.154805e+00
1.152297e+00
1.203983e+00
1.154805e+00
1.206467e+00
1.106476e+00
1.154805e+00
1.108865e+00
1.157154e+00
1.154805e+00
1.206467e+00
1.157154e+00
1.208794e+00
1.108865e+00
1.157154e+00
1.111099e+00
1.159351e+00
1.157154e+00
1.208794e+00
1.159351e+00
1.210970e+00
1.111099e+00
1.159351e+00
1.113184e+00
1.161401e+00
1.159351e+00
1.210970e+00
1.161401e+00
1.212999e+00
1.113184e+00
1.161401e+00
1.115122e+00
1.163306e+00
1.161401e+00
1.212999e+00
1.163306e+00
1.214885e+00
1.115122e+00
1.163306e+00
1.116919e+00
1.165073e+00
1.163306e+00
1.214885e+00
1.165073e+00
1.216634e+00
1.116919e+00
1.165073e+00
1.118578e+00
1.166704e+00
1.165073e+00
1.216634e+00
1.166704e+00
1.218248e+00
1.118578e+00
1.166704e+00
1.120102e+00
1.168203e+00
1.166704e+00
1.218248e+00
1.168203e+00
1.219731e+00
1.120102e+00
1.168203e+00
1.121495e+00
1.169571e+00
1.168203e+00
1.219731e+00
1.169571e+00
1.221085e+00
1.121495e+00
1.169571e+00
1.122758e+00
1.170813e+00
1.169571e+00
1.221085e+00
1.170813e+00
1.222314e+00
1.122758e+00
1.170813e+00
1.123894e+00
1.171930e+00
1.170813e+00
1.222314e+00
1.171930e+00
1.223419e+00
1.123894e+00
1.171930e+00
1.124906e+00
1.172925e+00
1.171930e+00
1.223419e+00
1.172925e+00
1.224402e+00
1.124906e+00
1.172925e+00
1.125794e+00
1.173798e+00
1.172925e+00
1.224402e+00
1.173798e+00
1.225266e+00
1.125794e+00
1.173798e+00
1.126561e+00
1.174552e+00
1.173798e+00
1.225266e+00
1.174552e+00
1.226012e+00
1.126561e+00
1.174552e+00
1.127208e+00
1.175188e+00
1.174552e+00
1.226012e+00
1.175188e+00
1.226641e+00
1.127208e+00
1.175188e+00
1.127735e+00
1.175706e+00
1.175188e+00
1.226641e+00
1.175706e+00
1.227154e+00
1.127735e+00
1.175706e+00
1.128145e+00
1.176109e+00
1.175706e+00
1.227154e+00
1.176109e+00
1.227552e+00
1.128145e+00
1.176109e+00
1.128437e+00
1.176396e+00
1.176109e+00
1.227552e+00
1.176396e+00
1.227836e+00
1.128437e+00
1.176396e+00
1.128612e+00
1.176568e+00
1.176396e+00
1.227836e+00
1.176568e+00
1.228006e+00
1.128612e+00
1.176568e+00
1.128670e+00
1.176625e+00
1.176568e+00
1.228006e+00
1.176625e+00
1.228063e+00
</DataArray>
<DataArray type="Float32" Name="V3" format="ascii">
0.000000e+00
0.000000e+00
6.651407e-03
5.409602e-03
0.000000e+00
0.000000e+00
5.409602e-03
3.971051e-03
6.651407e-03
5.409602e-03
1.326078e-02
1.078153e-02
5.409602e-03
3.971051e-03
1.078153e-02
7.909423e-03
1.326078e-02
1.078153e-02
1.978566e-02
1.607820e-02
1.078153e-02
7.909423e-03
1.607820e-02
1.178287e-02
1.978566e-02
1.607820e-02
2.618324e-02
2.126210e-02
1.607820e-02
1.178287e-02
2.126210e-02
1.555983e-02
2.618324e-02
2.126210e-02
3.240995e-02
2.629586e-02
2.126210e-02
1.555983e-02
2.629586e-02
1.920987e-02
3.240995e-02
2.629586e-02
3.842114e-02
3.114229e-02
2.629586e-02
1.920987e-02
3.114229e-02
2.270407e-02
3.842114e-02
3.114229e-02
4.417070e-02
3.576438e-02
3.114229e-02
2.270407e-02
3.576438e-02
2.601545e-02
4.417070e-02
3.576438e-02
4.961064e-02
4.012523e-02
3.576438e-02
2.601545e-02
4.012523e-02
2.911939e-02
4.961064e-02
4.012523e-02
5.469070e-02
4.418799e-02
4.012523e-02
2.911939e-02
4.418799e-02
3.199394e-02
5.469070e-02
4.418799e-02
5.935800e-02
4.791565e-02
4.418799e-02
3.199394e-02
4.791565e-02
3.461999e-02
5.935800e-02
4.791565e-02
6.355709e-02
5.127056e-02
4.791565e-02
3.461999e-02
5.127056e-02
3.698111e-02
6.355709e-02
5.127056e-02
6.723055e-02
5.421375e-02
5.127056e-02
3.698111e-02
5.421375e-02
3.906264e-02
6.723055e-02
5.421375e-02
7.032102e-02
5.670358e-02
5.421375e-02
3.906264e-02
5.670358e-02
4.084960e-02
7.032102e-02
5.670358e-02
7.277543e-02
5.869355e-02
5.670358e-02
4.084960e-02
5.869355e-02
4.232257e-02
7.277543e-02
5.869355e-02
7.455261e-02
6.012939e-02
5.869355e-02
4.232257e-02
6.012939e-02
4.345039e-02
7.455261e-02
6.012939e-02
7.563342e-02
6.095588e-02
6.012939e-02
4.345039e-02
6.095588e-02
4.418192e-02
7.563342e-02
6.095588e-02
7.604727e-02
6.117762e-02
6.095588e-02
4.418192e-02
6.117762e-02
4.432131e-02
7.604727e-02
6.117762e-02
7.596369e-02
6.105258e-02
6.117762e-02
4.432131e-02
6.105258e-02
4.418881e-02
7.596369e-02
6.105258e-02
7.545719e-02
6.067519e-02
6.105258e-02
4.418881e-02
6.067519e-02
4.440444e-02
7.545719e-02
6.067519e-02
7.468665e-02
6.024737e-02
6.067519e-02
4.440444e-02
6.024737e-02
4.472819e-02
7.468665e-02
6.024737e-02
7.374722e-02
5.982526e-02
6.024737e-02
4.472819e-02
5.982526e-02
4.509551e-02
7.374722e-02
5.982526e-02
7.269226e-02
5.939696e-02
5.982526e-02
4.509551e-02
5.939696e-02
4.546791e-02
7.269226e-02
5.939696e-02
7.155555e-02
5.894505e-02
5.939696e-02
4.546791e-02
5.894505e-02
4.581454e-02
7.155555e-02
5.894505e-02
7.035724e-02
5.845498e-02
5.894505e-02
4.581454e-02
5.845498e-02
4.611071e-02
7.035724e-02
5.845498e-02
6.910972e-02
5.791634e-02
5.845498e-02
4.611071e-02
5.791634e-02
4.633734e-02
6.910972e-02
5.791634e-02
6.782056e-02
5.732197e-02
5.791634e-02
4.633734e-02
5.732197e-02
4.648046e-02
6.782056e-02
5.732197e-02
6.649430e-02
5.666708e-02
5.732197e-02
4.648046e-02
5.666708e-02
4.653049e-02
6.649430e-02
5.666708e-02
6.513355e-02
5.594856e-02
5.666708e-02
4.653049e-02
5.594856e-02
4.648140e-02
6.513355e-02
5.594856e-02
6.373968e-02
5.516460e-02
5.594856e-02
4.648140e-02
5.516460e-02
4.632993e-02
6.373968e-02
5.516460e-02
6.231332e-02
5.431437e-02
5.516460e-02
4.632993e-02
5.431437e-02
4.607501e-02
6.231332e-02
5.431437e-02
6.085465e-02
5.339778e-02
5.431437e-02
4.607501e-02
5.339778e-02
4.571714e-02
6.085465e-02
5.339778e-02
5.936363e-02
5.241537e-02
5.339778e-02
4.571714e-02
5.241537e-02
4.525803e-02
5.936363e-02
5.241537e-02
5.784014e-02
5.136814e-02
5.241537e-02
4.525803e-02
5.136814e-02
4.470025e-02
5.784014e-02
5.136814e-02
5.628408e-02
5.025747e-02
5.136814e-02
4.470025e-02
5.025747e-02
4.404696e-02
5.628408e-02
5.025747e-02
5.469541e-02
4.908500e-02
5.025747e-02
4.404696e-02
4.908500e-02
4.330174e-02
5.469541e-02
4.908500e-02
5.307420e-02
4.785261e-02
4.908500e-02
4.330174e-02
4.785261e-02
4.246842e-02
5.307420e-02
4.785261e-02
5.142066e-02
4.656231e-02
4.785261e-02
4.246842e-02
4.656231e-02
4.155099e-02
5.142066e-02
4.656231e-02
4.973510e-02
4.521624e-02
4.656231e-02
4.155099e-02
4.521624e-02
4.055348e-02
4.973510e-02
4.521624e-02
4.801799e-02
4.381662e-02
4.521624e-02
4.055348e-02
4.381662e-02
3.947994e-02
4.801799e-02
4.381662e-02
4.626990e-02
4.236573e-02
4.381662e-02
3.947994e-02
4.236573e-02
3.833441e-02
4.626990e-02
4.236573e-02
4.449154e-02
4.086585e-02
4.236573e-02
3.833441e-02
4.086585e-02
3.712081e-02
4.449154e-02
4.086585e-02
4.268369e-02
3.931930e-02
4.086585e-02
3.712081e-02
3.931930e-02
3.584302e-02
4.268369e-02
3.931930e-02
4.084725e-02
3.772841e-02
3.931930e-02
3.584302e-02
3.772841e-02
3.450479e-02
4.084725e-02
3.772841e-02
3.898322e-02
3.609546e-02
3.772841e-02
3.450479e-02
3.609546e-02
3.310980e-02
3.898322e-02
3.609546e-02
3.709265e-02
3.442277e-02
3.609546e-02
3.310980e-02
3.442277e-02
3.166158e-02
3.709265e-02
3.442277e-02
3.517665e-02
3.271261e-02
3.442277e-02
3.166158e-02
3.271261e-02
3.016358e-02
3.517665e-02
3.271261e-02
3.323643e-02
3.096722e-02
3.271261e-02
3.016358e-02
3.096722e-02
2.861914e-02
3.323643e-02
3.096722e-02
3.127320e-02
2.918884e-02
3.096722e-02
2.861914e-02
2.918884e-02
2.703151e-02
3.127320e-02
2.918884e-02
2.928826e-02
2.737966e-02
2.918884e-02
2.703151e-02
2.737966e-02
2.540382e-02
2.928826e-02
2.737966e-02
2.728291e-02
2.554188e-02
2.737966e-02
2.540382e-02
2.554188e-02
2.373913e-02
2.728291e-02
2.554188e-02
2.525851e-02
2.367765e-02
2.554188e-02
2.373913e-02
2.367765e-02
2.204043e-02
2.525851e-02
2.367765e-02
2.321644e-02
2.178909e-02
2.367765e-02
2.204043e-02
2.178909e-02
2.031059e-02
2.321644e-02
2.178909e-02
2.115810e-02
1.987831e-02
2.178909e-02
2.031059e-02
1.987831e-02
1.855246e-02
2.115810e-02
1.987831e-02
1.908492e-02
1.794741e-02
1.987831e-02
1.855246e-02
1.794741e-02
1.676879e-02
1.908492e-02
1.794741e-02
1.699833e-02
1.599845e-02
1.794741e-02
1.676879e-02
1.599845e-02
1.496230e-02
1.699833e-02
1.599845e-02
1.489979e-02
1.403348e-02
1.599845e-02
1.496230e-02
1.403348e-02
1.313565e-02
1.489979e-02
1.403348e-02
1.279078e-02
1.205454e-02
1.403348e-02
1.313565e-02
1.205454e-02
1.129144e-02
1.279078e-02
1.205454e-02
1.067277e-02
1.006365e-02
1.205454e-02
1.129144e-02
1.006365e-02
9.432266e-03
1.067277e-02
1.006365e-02
8.547243e-03
8.062824e-03
1.006365e-02
9.432266e-03
8.062824e-03
7.560659e-03
8.547243e-03
8.062824e-03
6.415703e-03
6.054055e-03
8.062824e-03
7.560659e-03
6.054055e-03
5.679140e-03
6.415703e-03
6.054055e-03
4.279646e-03
4.039338e-03
6.054055e-03
5.679140e-03
4.039338e-03
3.790205e-03
4.279646e-03
4.039338e-03
2.140577e-03
2.020659e-03
4.039338e-03
3.790205e-03
2.020659e-03
1.896335e-03
2.140577e-03
2.020659e-03
0.000000e+00
0.000000e+00
2.020659e-03
1.896335e-03
0.000000e+00
0.000000e+00
</DataArray>
<DataArray type="Float32" Name="V4" format="ascii">
8.500000e-01
9.250000e-01
8.500000e-01
9.250000e-01
9.250000e-01
1.000000e+00