<?xml version="1.0"?>
<VTKFile type="UnstructuredGrid" version="0.1" byte_order="LittleEndian" compressor="vtkZLibDataCompressor">
<UnstructuredGrid>
<Piece NumberOfPoints="504" NumberOfCells="126">
<Points>
<DataArray type="Float32" NumberOfComponents="3" format="ascii">
0.000000e+00 5.641998e-01 0.000000e+00
0.000000e+00 6.036051e-01 0.000000e+00
3.054882e-02 5.642093e-01 0.000000e+00
3.052763e-02 6.036095e-01 0.000000e+00
0.000000e+00 6.036051e-01 0.000000e+00
0.000000e+00 6.500000e-01 0.000000e+00
3.052763e-02 6.036095e-01 0.000000e+00
3.051550e-02 6.500000e-01 0.000000e+00
3.054882e-02 5.642093e-01 0.000000e+00
3.052763e-02 6.036095e-01 0.000000e+00
6.109715e-02 5.642328e-01 0.000000e+00
6.105470e-02 6.036223e-01 0.000000e+00
3.052763e-02 6.036095e-01 0.000000e+00
3.051550e-02 6.500000e-01 0.000000e+00
6.105470e-02 6.036223e-01 0.000000e+00
6.103044e-02 6.500000e-01 0.000000e+00
6.109715e-02 5.642328e-01 0.000000e+00
6.105470e-02 6.036223e-01 0.000000e+00
9.164417e-02 5.642719e-01 0.000000e+00
9.158064e-02 6.036436e-01 0.000000e+00
6.105470e-02 6.036223e-01 0.000000e+00
6.103044e-02 6.500000e-01 0.000000e+00
9.158064e-02 6.036436e-01 0.000000e+00
9.154433e-02 6.500000e-01 0.000000e+00
9.164417e-02 5.642719e-01 0.000000e+00
9.158064e-02 6.036436e-01 0.000000e+00
1.221893e-01 5.643266e-01 0.000000e+00
1.221049e-01 6.036734e-01 0.000000e+00
9.158064e-02 6.036436e-01 0.000000e+00
9.154433e-02 6.500000e-01 0.000000e+00
1.221049e-01 6.036734e-01 0.000000e+00
1.220566e-01 6.500000e-01 0.000000e+00
1.221893e-01 5.643266e-01 0.000000e+00
1.221049e-01 6.036734e-01 0.000000e+00
1.527318e-01 5.643969e-01 0.000000e+00
1.526268e-01 6.037116e-01 0.000000e+00
1.221049e-01 6.036734e-01 0.000000e+00
1.220566e-01 6.500000e-01 0.000000e+00
1.526268e-01 6.037116e-01 0.000000e+00
1.525668e-01 6.500000e-01 0.000000e+00
1.527318e-01 5.643969e-01 0.000000e+00
1.526268e-01 6.037116e-01 0.000000e+00
1.832711e-01 5.644827e-01 0.000000e+00
1.831458e-01 6.037584e-01 0.000000e+00
1.526268e-01 6.037116e-01 0.000000e+00
1.525668e-01 6.500000e-01 0.000000e+00
1.831458e-01 6.037584e-01 0.000000e+00
1.830743e-01 6.500000e-01 0.000000e+00
1.832711e-01 5.644827e-01 0.000000e+00
1.831458e-01 6.037584e-01 0.000000e+00
2.138064e-01 5.645839e-01 0.000000e+00
2.136612e-01 6.038136e-01 0.000000e+00
1.831458e-01 6.037584e-01 0.000000e+00
1.830743e-01 6.500000e-01 0.000000e+00
2.136612e-01 6.038136e-01 0.000000e+00
2.135787e-01 6.500000e-01 0.000000e+00
2.138064e-01 5.645839e-01 0.000000e+00
2.136612e-01 6.038136e-01 0.000000e+00
2.443371e-01 5.647006e-01 0.000000e+00
2.441726e-01 6.038772e-01 0.000000e+00
2.136612e-01 6.038136e-01 0.000000e+00
2.135787e-01 6.500000e-01 0.000000e+00
2.441726e-01 6.038772e-01 0.000000e+00
2.440793e-01 6.500000e-01 0.000000e+00
2.443371e-01 5.647006e-01 0.000000e+00
2.441726e-01 6.038772e-01 0.000000e+00
2.748622e-01 5.648325e-01 0.000000e+00
2.746792e-01 6.039493e-01 0.000000e+00
2.441726e-01 6.038772e-01 0.000000e+00
2.440793e-01 6.500000e-01 0.000000e+00
2.746792e-01 6.039493e-01 0.000000e+00
2.745758e-01 6.500000e-01 0.000000e+00
2.748622e-01 5.648325e-01 0.000000e+00
2.746792e-01 6.039493e-01 0.000000e+00
3.053810e-01 5.649796e-01 0.000000e+00
3.051804e-01 6.040298e-01 0.000000e+00
2.746792e-01 6.039493e-01 0.000000e+00
2.745758e-01 6.500000e-01 0.000000e+00
3.051804e-01 6.040298e-01 0.000000e+00
3.050676e-01 6.500000e-01 0.000000e+00
3.053810e-01 5.649796e-01 0.000000e+00
3.051804e-01 6.040298e-01 0.000000e+00
3.358925e-01 5.651419e-01 0.000000e+00
3.356755e-01 6.041188e-01 0.000000e+00
3.051804e-01 6.040298e-01 0.000000e+00
3.050676e-01 6.500000e-01 0.000000e+00
3.356755e-01 6.041188e-01 0.000000e+00
3.355543e-01 6.500000e-01 0.000000e+00
3.358925e-01 5.651419e-01 0.000000e+00
3.356755e-01 6.041188e-01 0.000000e+00
3.663959e-01 5.653193e-01 0.000000e+00
3.661639e-01 6.042163e-01 0.000000e+00
3.356755e-01 6.041188e-01 0.000000e+00
3.355543e-01 6.500000e-01 0.000000e+00
3.661639e-01 6.042163e-01 0.000000e+00
3.660355e-01 6.500000e-01 0.000000e+00
3.663959e-01 5.653193e-01 0.000000e+00
3.661639e-01 6.042163e-01 0.000000e+00
3.968899e-01 5.655117e-01 0.000000e+00
3.966449e-01 6.043224e-01 0.000000e+00
3.661639e-01 6.042163e-01 0.000000e+00
3.660355e-01 6.500000e-01 0.000000e+00
3.966449e-01 6.043224e-01 0.000000e+00
3.965109e-01 6.500000e-01 0.000000e+00
3.968899e-01 5.655117e-01 0.000000e+00
3.966449e-01 6.043224e-01 0.000000e+00
4.273733e-01 5.657191e-01 0.000000e+00
4.271177e-01 6.044372e-01 0.000000e+00
3.966449e-01 6.043224e-01 0.000000e+00
3.965109e-01 6.500000e-01 0.000000e+00
4.271177e-01 6.044372e-01 0.000000e+00
4.269803e-01 6.500000e-01 0.000000e+00
4.273733e-01 5.657191e-01 0.000000e+00
4.271177e-01 6.044372e-01 0.000000e+00
4.578448e-01 5.659414e-01 0.000000e+00
4.575818e-01 6.045608e-01 0.000000e+00
4.271177e-01 6.044372e-01 0.000000e+00
4.269803e-01 6.500000e-01 0.000000e+00
4.575818e-01 6.045608e-01 0.000000e+00
4.574437e-01 6.500000e-01 0.000000e+00
4.578448e-01 5.659414e-01 0.000000e+00
4.575818e-01 6.045608e-01 0.000000e+00
4.883028e-01 5.661787e-01 0.000000e+00
4.880365e-01 6.046935e-01 0.000000e+00
4.575818e-01 6.045608e-01 0.000000e+00
4.574437e-01 6.500000e-01 0.000000e+00
4.880365e-01 6.046935e-01 0.000000e+00
4.879013e-01 6.500000e-01 0.000000e+00
4.883028e-01 5.661787e-01 0.000000e+00
4.880365e-01 6.046935e-01 0.000000e+00
5.187454e-01 5.664310e-01 0.000000e+00
5.184811e-01 6.048357e-01 0.000000e+00
4.880365e-01 6.046935e-01 0.000000e+00
4.879013e-01 6.500000e-01 0.000000e+00
5.184811e-01 6.048357e-01 0.000000e+00
5.183537e-01 6.500000e-01 0.000000e+00
5.187454e-01 5.664310e-01 0.000000e+00
5.184811e-01 6.048357e-01 0.000000e+00
5.491704e-01 5.666986e-01 0.000000e+00
5.489152e-01 6.049879e-01 0.000000e+00
5.184811e-01 6.048357e-01 0.000000e+00
5.183537e-01 6.500000e-01 0.000000e+00
5.489152e-01 6.049879e-01 0.000000e+00
5.488017e-01 6.500000e-01 0.000000e+00
5.491704e-01 5.666986e-01 0.000000e+00
5.489152e-01 6.049879e-01 0.000000e+00
5.795753e-01 5.669816e-01 0.000000e+00
5.793381e-01 6.051507e-01 0.000000e+00
5.489152e-01 6.049879e-01 0.000000e+00
5.488017e-01 6.500000e-01 0.000000e+00
5.793381e-01 6.051507e-01 0.000000e+00
5.792467e-01 6.500000e-01 0.000000e+00
5.795753e-01 5.669816e-01 0.000000e+00
5.793381e-01 6.051507e-01 0.000000e+00
6.099567e-01 5.672805e-01 0.000000e+00
6.097496e-01 6.053251e-01 0.000000e+00
5.793381e-01 6.051507e-01 0.000000e+00
5.792467e-01 6.500000e-01 0.000000e+00
6.097496e-01 6.053251e-01 0.000000e+00
6.096912e-01 6.500000e-01 0.000000e+00
6.099567e-01 5.672805e-01 0.000000e+00
6.097496e-01 6.053251e-01 0.000000e+00
6.403110e-01 5.675957e-01 0.000000e+00
6.401495e-01 6.055121e-01 0.000000e+00
6.097496e-01 6.053251e-01 0.000000e+00
6.096912e-01 6.500000e-01 0.000000e+00
6.401495e-01 6.055121e-01 0.000000e+00
6.401382e-01 6.500000e-01 0.000000e+00
6.403110e-01 5.675957e-01 0.000000e+00
6.401495e-01 6.055121e-01 0.000000e+00
6.706331e-01 5.679278e-01 0.000000e+00
6.705380e-01 6.057133e-01 0.000000e+00
6.401495e-01 6.055121e-01 0.000000e+00
6.401382e-01 6.500000e-01 0.000000e+00
6.705380e-01 6.057133e-01 0.000000e+00
6.705922e-01 6.500000e-01 0.000000e+00
6.706331e-01 5.679278e-01 0.000000e+00
6.705380e-01 6.057133e-01 0.000000e+00
7.009169e-01 5.682777e-01 0.000000e+00
7.009152e-01 6.059306e-01 0.000000e+00
6.705380e-01 6.057133e-01 0.000000e+00
6.705922e-01 6.500000e-01 0.000000e+00
7.009152e-01 6.059306e-01 0.000000e+00
7.010595e-01 6.500000e-01 0.000000e+00
7.009169e-01 5.682777e-01 0.000000e+00
7.009152e-01 6.059306e-01 0.000000e+00
7.311547e-01 5.686462e-01 0.000000e+00
7.312821e-01 6.061665e-01 0.000000e+00
7.009152e-01 6.059306e-01 0.000000e+00
7.010595e-01 6.500000e-01 0.000000e+00
7.312821e-01 6.061665e-01 0.000000e+00
7.315485e-01 6.500000e-01 0.000000e+00
7.311547e-01 5.686462e-01 0.000000e+00
7.312821e-01 6.061665e-01 0.000000e+00
7.613365e-01 5.690343e-01 0.000000e+00
7.616398e-01 6.064239e-01 0.000000e+00
7.312821e-01 6.061665e-01 0.000000e+00
7.315485e-01 6.500000e-01 0.000000e+00
7.616398e-01 6.064239e-01 0.000000e+00
7.620704e-01 6.500000e-01 0.000000e+00
7.613365e-01 5.690343e-01 0.000000e+00
7.616398e-01 6.064239e-01 0.000000e+00
7.914493e-01 5.694426e-01 0.000000e+00
7.919897e-01 6.067060e-01 0.000000e+00
7.616398e-01 6.064239e-01 0.000000e+00
7.620704e-01 6.500000e-01 0.000000e+00
7.919897e-01 6.067060e-01 0.000000e+00
7.926399e-01 6.500000e-01 0.000000e+00
7.914493e-01 5.694426e-01 0.000000e+00
7.919897e-01 6.067060e-01 0.000000e+00
8.214766e-01 5.698709e-01 0.000000e+00
8.223335e-01 6.070164e-01 0.000000e+00
7.919897e-01 6.067060e-01 0.000000e+00
7.926399e-01 6.500000e-01 0.000000e+00
8.223335e-01 6.070164e-01 0.000000e+00
8.232763e-01 6.500000e-01 0.000000e+00
8.214766e-01 5.698709e-01 0.000000e+00
8.223335e-01 6.070164e-01 0.000000e+00
8.513966e-01 5.703173e-01 0.000000e+00
8.526721e-01 6.073581e-01 0.000000e+00
8.223335e-01 6.070164e-01 0.000000e+00
8.232763e-01 6.500000e-01 0.000000e+00
8.526721e-01 6.073581e-01 0.000000e+00
8.540043e-01 6.500000e-01 0.000000e+00
8.513966e-01 5.703173e-01 0.000000e+00
8.526721e-01 6.073581e-01 0.000000e+00
8.811811e-01 5.707758e-01 0.000000e+00
8.830045e-01 6.077317e-01 0.000000e+00
8.526721e-01 6.073581e-01 0.000000e+00
8.540043e-01 6.500000e-01 0.000000e+00
8.830045e-01 6.077317e-01 0.000000e+00
8.848546e-01 6.500000e-01 0.000000e+00
8.811811e-01 5.707758e-01 0.000000e+00
8.830045e-01 6.077317e-01 0.000000e+00
9.107932e-01 5.712315e-01 0.000000e+00
9.133235e-01 6.081312e-01 0.000000e+00
8.830045e-01 6.077317e-01 0.000000e+00
8.848546e-01 6.500000e-01 0.000000e+00
9.133235e-01 6.081312e-01 0.000000e+00
9.158636e-01 6.500000e-01 0.000000e+00
9.107932e-01 5.712315e-01 0.000000e+00
9.133235e-01 6.081312e-01 0.000000e+00
9.401834e-01 5.716507e-01 0.000000e+00
9.436085e-01 6.085331e-01 0.000000e+00
9.133235e-01 6.081312e-01 0.000000e+00
9.158636e-01 6.500000e-01 0.000000e+00
9.436085e-01 6.085331e-01 0.000000e+00
9.470682e-01 6.500000e-01 0.000000e+00
9.401834e-01 5.716507e-01 0.000000e+00
[...]
<PointData>
<DataArray type="Float32" Name="V1" format="ascii">
3.158185e+01
1.078303e+01
3.159493e+01
1.079611e+01
1.139714e+01
1.552772e+00
1.140322e+01
1.558847e+00
3.160168e+01
1.078829e+01
3.163485e+01
1.082146e+01
1.140777e+01
1.556431e+00
1.142343e+01
1.572095e+00
3.165000e+01
1.080642e+01
3.170545e+01
1.086187e+01
1.143241e+01
1.567088e+00
1.145902e+01
1.593691e+00
3.172810e+01
1.083924e+01
3.180602e+01
1.091715e+01
1.147224e+01
1.585880e+00
1.150980e+01
1.623440e+00
3.183620e+01
1.088684e+01
3.193674e+01
1.098739e+01
1.152734e+01
1.612843e+00
1.157592e+01
1.661429e+00
3.197451e+01
1.094936e+01
3.209792e+01
1.107278e+01
1.159785e+01
1.648043e+00
1.165759e+01
1.707784e+00
3.214333e+01
1.102698e+01
3.228989e+01
1.117354e+01
1.168396e+01
1.691585e+00
1.175502e+01
1.762650e+00
3.234301e+01
1.111992e+01
3.251305e+01
1.128996e+01
1.178592e+01
1.743597e+00
1.186853e+01
1.826206e+00
3.257392e+01
1.122845e+01
3.276782e+01
1.142236e+01
1.190403e+01
1.804252e+00
1.199844e+01
1.898668e+00
3.283650e+01
1.135290e+01
3.305469e+01
1.157109e+01
1.203863e+01
1.873758e+00
1.214517e+01
1.980297e+00
3.313121e+01
1.149364e+01
3.337415e+01
1.173658e+01
1.219013e+01
1.952365e+00
1.230917e+01
2.071404e+00
3.345850e+01
1.165113e+01
3.372669e+01
1.191931e+01
1.235901e+01
2.040381e+00
1.249100e+01
2.172367e+00
3.381883e+01
1.182587e+01
3.411277e+01
1.211981e+01
1.254582e+01
2.138175e+00
1.269128e+01
2.283640e+00
3.421260e+01
1.201847e+01
3.453281e+01
1.233868e+01
1.275117e+01
2.246200e+00
1.291075e+01
2.405779e+00
3.464010e+01
1.222961e+01
3.498707e+01
1.257658e+01
1.297580e+01
2.365001e+00
1.315026e+01
2.539458e+00
3.510145e+01
1.246011e+01
3.547563e+01
1.283429e+01
1.322054e+01
2.495261e+00
1.341080e+01
2.685522e+00
3.559655e+01
1.271090e+01
3.599828e+01
1.311263e+01
1.348636e+01
2.637819e+00
1.369356e+01
2.845011e+00
3.612488e+01
1.298310e+01
3.655435e+01
1.341257e+01
1.377441e+01
2.793727e+00
1.399993e+01
3.019248e+00
3.668538e+01
1.327802e+01
3.714255e+01
1.373519e+01
1.408601e+01
2.964318e+00
1.433160e+01
3.209910e+00
3.727624e+01
1.359728e+01
3.776072e+01
1.408175e+01
1.442277e+01
3.151288e+00
1.469063e+01
3.419149e+00
3.789454e+01
1.394282e+01
3.840543e+01
1.445371e+01
1.478660e+01
3.356824e+00
1.507954e+01
3.649764e+00
3.853586e+01
1.431707e+01
3.907156e+01
1.485277e+01
1.517985e+01
3.583773e+00
1.550149e+01
3.905413e+00
3.919373e+01
1.472305e+01
3.975168e+01
1.528100e+01
1.560537e+01
3.835877e+00
1.596043e+01
4.190940e+00
3.985893e+01
1.516463e+01
4.043521e+01
1.574091e+01
1.606671e+01
4.118104e+00
1.646142e+01
4.512817e+00
4.051853e+01
1.564672e+01
4.110740e+01
1.623559e+01
1.656827e+01
4.437154e+00
1.701093e+01
4.879810e+00
4.115473e+01
1.617565e+01
4.174802e+01
1.676894e+01
1.711549e+01
4.802179e+00
1.761727e+01
5.303955e+00
4.174353e+01
1.675952e+01
4.232986e+01
1.734585e+01
1.771495e+01
5.225983e+00
1.829113e+01
5.802161e+00
4.225316e+01
1.740861e+01
4.281714e+01
1.797259e+01
1.837431e+01
5.726994e+00
1.904615e+01
6.398830e+00
4.264266e+01
1.813575e+01
4.316438e+01
1.865747e+01
1.910155e+01
6.332797e+00
1.989942e+01
7.130666e+00
4.286102e+01
1.895694e+01
4.331665e+01
1.941257e+01
1.990280e+01
7.087033e+00
2.087185e+01
8.056078e+00
4.284772e+01
1.989262e+01
4.321383e+01
2.025873e+01
2.077666e+01
8.063504e+00
2.198833e+01
9.275175e+00
4.253497e+01
2.097477e+01
4.280246e+01
2.124227e+01
2.170098e+01
9.399432e+00
2.327542e+01
1.097387e+01
4.186839e+01
2.225888e+01
4.207714e+01
2.246763e+01
2.262025e+01
1.133613e+01
2.478600e+01
1.350187e+01
4.072430e+01
2.393968e+01
4.107366e+01
2.428903e+01
2.312703e+01
1.476589e+01
2.613669e+01
1.777556e+01
3.968410e+01
2.595270e+01
3.995265e+01
2.622126e+01
2.469167e+01
1.907738e+01
2.650202e+01
2.088774e+01
3.909310e+01
2.712959e+01
3.953228e+01
2.756877e+01
2.623632e+01
2.090509e+01
2.754126e+01
2.221003e+01
3.903752e+01
2.804361e+01
3.963589e+01
2.864198e+01
2.736530e+01
2.229147e+01
2.850623e+01
2.343241e+01
3.941801e+01
2.886437e+01
4.017745e+01
2.962380e+01
2.843233e+01
2.347021e+01
2.947020e+01
2.450808e+01
4.011609e+01
2.968688e+01
4.099730e+01
3.056810e+01
2.946630e+01
2.450400e+01
3.041804e+01
2.545573e+01
4.103804e+01
3.052043e+01
4.200326e+01
3.148566e+01
3.047279e+01
2.541421e+01
3.134960e+01
2.629103e+01
4.211351e+01
3.135980e+01
4.313086e+01
3.237715e+01
3.144974e+01
2.621970e+01
3.226008e+01
2.703004e+01
4.328996e+01
3.219563e+01
4.433380e+01
3.323946e+01
3.239381e+01
2.693653e+01
3.314446e+01
2.768718e+01
4.452715e+01
3.301895e+01
4.557704e+01
3.406885e+01
3.330157e+01
2.757837e+01
3.399796e+01
2.827475e+01
4.579368e+01
3.382213e+01
4.683348e+01
3.486193e+01
3.417006e+01
2.815638e+01
3.481656e+01
2.880289e+01
4.706486e+01
3.459905e+01
4.808187e+01
3.561606e+01
3.499695e+01
2.867956e+01
3.559715e+01
2.927976e+01
4.832117e+01
3.534498e+01
4.930550e+01
3.632931e+01
3.578062e+01
2.915502e+01
3.633745e+01
2.971186e+01
4.954720e+01
3.605638e+01
5.049122e+01
3.700040e+01
3.651995e+01
2.958843e+01
3.703586e+01
3.010435e+01
5.073087e+01
3.673066e+01
5.162877e+01
3.762856e+01
3.721431e+01
2.998424e+01
3.769137e+01
3.046130e+01
5.186279e+01
3.736600e+01
5.271021e+01
3.821342e+01
3.786345e+01
3.034600e+01
3.830340e+01
3.078595e+01
5.293573e+01
3.796119e+01
5.372945e+01
3.875491e+01
3.846737e+01
3.067654e+01
3.887169e+01
3.108087e+01
5.394418e+01
3.851544e+01
5.468193e+01
3.925319e+01
3.902626e+01
3.097812e+01
3.939626e+01
3.134813e+01
5.488408e+01
3.902836e+01
5.556425e+01
3.970854e+01
3.954049e+01
3.125258e+01
3.987729e+01
3.158938e+01
5.575243e+01
3.949978e+01
5.637400e+01
4.012135e+01
4.001050e+01
3.150139e+01
4.031507e+01
3.180597e+01
5.654711e+01
3.992975e+01
5.710945e+01
4.049209e+01
4.043680e+01
3.172579e+01
4.070999e+01
3.199899e+01
5.726669e+01
4.031841e+01
5.776949e+01
4.082121e+01
4.081991e+01
3.192676e+01
4.106247e+01
3.216933e+01
5.791024e+01
4.066602e+01
5.835340e+01
4.110918e+01
4.116036e+01
3.210513e+01
4.137295e+01
3.231771e+01
5.847720e+01
4.097289e+01
5.886076e+01
4.135645e+01
4.145869e+01
3.226158e+01
4.164184e+01
3.244473e+01
5.896730e+01
4.123933e+01
5.929139e+01
4.156342e+01
4.171536e+01
3.239668e+01
4.186956e+01
3.255087e+01
5.938043e+01
4.146565e+01
5.964524e+01
4.173047e+01
4.193082e+01
3.251088e+01
4.205645e+01
3.263651e+01
5.971662e+01
4.165216e+01
5.992234e+01
4.185788e+01
4.210545e+01
3.260456e+01
4.220284e+01
3.270195e+01
5.997595e+01
4.179911e+01
6.012276e+01
4.194592e+01
4.223957e+01
3.267800e+01
4.230896e+01
3.274739e+01
6.015853e+01
4.190672e+01
6.024655e+01
4.199475e+01
4.233344e+01
3.273145e+01
4.237501e+01
3.277301e+01
6.026445e+01
4.197514e+01
6.029378e+01
4.200448e+01
4.238724e+01
3.276504e+01
4.240109e+01
3.277889e+01
</DataArray>
<DataArray type="Float32" Name="V2" format="ascii">
5.641998e-01
6.036051e-01
5.647956e-01
6.041830e-01
6.036051e-01
6.500000e-01
6.041830e-01
6.505587e-01
5.647956e-01
6.041830e-01
5.665768e-01
6.059153e-01
6.041830e-01
6.505587e-01
6.059153e-01
6.522341e-01
5.665768e-01
6.059153e-01
5.695426e-01
6.087995e-01
6.059153e-01
6.522341e-01
6.087995e-01
6.550236e-01
5.695426e-01
6.087995e-01
5.736885e-01
6.128313e-01
6.087995e-01
6.550236e-01
6.128313e-01
6.589229e-01
5.736885e-01
6.128313e-01
5.790080e-01
6.180045e-01
6.128313e-01
6.589229e-01
6.180045e-01
6.639262e-01
5.790080e-01
6.180045e-01
5.854930e-01
6.243113e-01
6.180045e-01
6.639262e-01
6.243113e-01
6.700259e-01
5.854930e-01
6.243113e-01
5.931337e-01
6.317422e-01
6.243113e-01
6.700259e-01
6.317422e-01
6.772126e-01
5.931337e-01
6.317422e-01
6.019184e-01
6.402857e-01
6.317422e-01
6.772126e-01
6.402857e-01
6.854755e-01
6.019184e-01
6.402857e-01
6.118336e-01
6.499289e-01
6.402857e-01
6.854755e-01
6.499289e-01
6.948020e-01
6.118336e-01
6.499289e-01
6.228640e-01
6.606571e-01
6.499289e-01
6.948020e-01
6.606571e-01
7.051779e-01
6.228640e-01
6.606571e-01
6.349926e-01
6.724539e-01
6.606571e-01
7.051779e-01
6.724539e-01
7.165874e-01
6.349926e-01
6.724539e-01
6.482008e-01
6.853014e-01
6.724539e-01
7.165874e-01
6.853014e-01
7.290132e-01
6.482008e-01
6.853014e-01
6.624681e-01
6.991798e-01
6.853014e-01
7.290132e-01
6.991798e-01
7.424362e-01
6.624681e-01
6.991798e-01
6.777723e-01
7.140680e-01
6.991798e-01
7.424362e-01
7.140680e-01
7.568361e-01
6.777723e-01
7.140680e-01
6.940895e-01
7.299432e-01
7.140680e-01
7.568361e-01
7.299432e-01
7.721909e-01
6.940895e-01
7.299432e-01
7.113940e-01
7.467811e-01
7.299432e-01
7.721909e-01
7.467811e-01
7.884774e-01
7.113940e-01
7.467811e-01
7.296585e-01
7.645559e-01
7.467811e-01
7.884774e-01
7.645559e-01
8.056710e-01
7.296585e-01
7.645559e-01
7.488539e-01
7.832406e-01
7.645559e-01
8.056710e-01
7.832406e-01
8.237459e-01
7.488539e-01
7.832406e-01
7.689494e-01
8.028068e-01
7.832406e-01
8.237459e-01
8.028068e-01
8.426752e-01
7.689494e-01
8.028068e-01
7.899122e-01
8.232247e-01
8.028068e-01
8.426752e-01
8.232247e-01
8.624313e-01
7.899122e-01
8.232247e-01
8.117077e-01
8.444636e-01
8.232247e-01
8.624313e-01
8.444636e-01
8.829856e-01
8.117077e-01
8.444636e-01
8.342993e-01
8.664917e-01
8.444636e-01
8.829856e-01
8.664917e-01
9.043095e-01
8.342993e-01
8.664917e-01
8.576478e-01
8.892764e-01
8.664917e-01
9.043095e-01
8.892764e-01
9.263741e-01
8.576478e-01
8.892764e-01
8.817116e-01
9.127842e-01
8.892764e-01
9.263741e-01
9.127842e-01
9.491512e-01
8.817116e-01
9.127842e-01
9.064459e-01
9.369810e-01
9.127842e-01
9.491512e-01
9.369810e-01
9.726135e-01
9.064459e-01
9.369810e-01
9.318018e-01
9.618319e-01
9.369810e-01
9.726135e-01
9.618319e-01
9.967356e-01
9.318018e-01
9.618319e-01
9.577253e-01
9.873011e-01
9.618319e-01
9.967356e-01
9.873011e-01
1.021495e+00
9.577253e-01
9.873011e-01
9.841556e-01
1.013350e+00
9.873011e-01
1.021495e+00
1.013350e+00
1.046872e+00
9.841556e-01
1.013350e+00
1.011022e+00
1.039937e+00
1.013350e+00
1.046872e+00
1.039937e+00
1.072854e+00
1.011022e+00
1.039937e+00
1.038239e+00
1.067009e+00
1.039937e+00
1.072854e+00
1.067009e+00
1.099429e+00
1.038239e+00
1.067009e+00
1.065696e+00
1.094491e+00
1.067009e+00
1.099429e+00
1.094491e+00
1.126591e+00
1.065696e+00
1.094491e+00
1.093242e+00
1.122253e+00
1.094491e+00
1.126591e+00
1.122253e+00
1.154320e+00
1.093242e+00
1.122253e+00
1.120619e+00
1.150025e+00
1.122253e+00
1.154320e+00
1.150025e+00
1.182556e+00
1.120619e+00
1.150025e+00
1.147556e+00
1.177467e+00
1.150025e+00
1.182556e+00
1.177467e+00
1.210848e+00
1.147556e+00
1.177467e+00
1.173386e+00
1.203588e+00
1.177467e+00
1.210848e+00
1.203588e+00
1.236945e+00
1.173386e+00
1.203588e+00
1.197805e+00
1.228313e+00
1.203588e+00
1.236945e+00
1.228313e+00
1.261825e+00
1.197805e+00
1.228313e+00
1.220746e+00
1.251668e+00
1.228313e+00
1.261825e+00
1.251668e+00
1.285454e+00
1.220746e+00
1.251668e+00
1.242301e+00
1.273695e+00
1.251668e+00
1.285454e+00
1.273695e+00
1.307837e+00
1.242301e+00
1.273695e+00
1.262546e+00
1.294418e+00
1.273695e+00
1.307837e+00
1.294418e+00
1.328954e+00
1.262546e+00
1.294418e+00
1.281549e+00
1.313872e+00
1.294418e+00
1.328954e+00
1.313872e+00
1.348811e+00
1.281549e+00
1.313872e+00
1.299370e+00
1.332102e+00
1.313872e+00
1.348811e+00
1.332102e+00
1.367432e+00
1.299370e+00
1.332102e+00
1.316065e+00
1.349157e+00
1.332102e+00
1.367432e+00
1.349157e+00
1.384852e+00
1.316065e+00
1.349157e+00
1.331684e+00
1.365086e+00
1.349157e+00
1.384852e+00
1.365086e+00
1.401115e+00
1.331684e+00
1.365086e+00
1.346273e+00
1.379940e+00
1.365086e+00
1.401115e+00
1.379940e+00
1.416266e+00
1.346273e+00
1.379940e+00
1.359878e+00
1.393765e+00
1.379940e+00
1.416266e+00
1.393765e+00
1.430353e+00
1.359878e+00
1.393765e+00
1.372539e+00
1.406608e+00
1.393765e+00
1.430353e+00
1.406608e+00
1.443422e+00
1.372539e+00
1.406608e+00
1.384292e+00
1.418510e+00
1.406608e+00
1.443422e+00
1.418510e+00
1.455519e+00
1.384292e+00
1.418510e+00
1.395174e+00
1.429512e+00
1.418510e+00
1.455519e+00
1.429512e+00
1.466686e+00
1.395174e+00
1.429512e+00
1.405217e+00
1.439649e+00
1.429512e+00
1.466686e+00
1.439649e+00
1.476963e+00
1.405217e+00
1.439649e+00
1.414448e+00
1.448955e+00
1.439649e+00
1.476963e+00
1.448955e+00
1.486387e+00
1.414448e+00
1.448955e+00
1.422897e+00
1.457461e+00
1.448955e+00
1.486387e+00
1.457461e+00
1.494990e+00
1.422897e+00
1.457461e+00
1.430585e+00
1.465193e+00
1.457461e+00
1.494990e+00
1.465193e+00
1.502803e+00
1.430585e+00
1.465193e+00
1.437536e+00
1.472176e+00
1.465193e+00
1.502803e+00
1.472176e+00
1.509852e+00
1.437536e+00
1.472176e+00
1.443769e+00
1.478433e+00
1.472176e+00
1.509852e+00
1.478433e+00
1.516162e+00
1.443769e+00
1.478433e+00
1.449302e+00
1.483982e+00
1.478433e+00
1.516162e+00
1.483982e+00
1.521755e+00
1.449302e+00
1.483982e+00
1.454149e+00
1.488840e+00
1.483982e+00
1.521755e+00
1.488840e+00
1.526648e+00
1.454149e+00
1.488840e+00
1.458323e+00
1.493022e+00
1.488840e+00
1.526648e+00
1.493022e+00
1.530857e+00
1.458323e+00
1.493022e+00
1.461837e+00
1.496540e+00
1.493022e+00
1.530857e+00
1.496540e+00
1.534397e+00
1.461837e+00
1.496540e+00
1.464699e+00
1.499405e+00
1.496540e+00
1.534397e+00
1.499405e+00
1.537278e+00
1.464699e+00
1.499405e+00
1.466918e+00
1.501624e+00
1.499405e+00
1.537278e+00
1.501624e+00
1.539509e+00
1.466918e+00
1.501624e+00
1.468498e+00
1.503205e+00
1.501624e+00
1.539509e+00
1.503205e+00
1.541098e+00
1.468498e+00
1.503205e+00
1.469445e+00
1.504152e+00
1.503205e+00
1.541098e+00
1.504152e+00
1.542050e+00
1.469445e+00
1.504152e+00
1.469760e+00
1.504467e+00
1.504152e+00
1.542050e+00
1.504467e+00
1.542366e+00
</DataArray>
<DataArray type="Float32" Name="V3" format="ascii">
0.000000e+00
0.000000e+00
1.647320e-02
1.546974e-02
0.000000e+00
0.000000e+00
1.546974e-02
1.430107e-02
1.647320e-02
1.546974e-02
3.289652e-02
3.089072e-02
1.546974e-02
1.430107e-02
3.089072e-02
2.855475e-02
3.289652e-02
3.089072e-02
4.921983e-02
4.621422e-02
3.089072e-02
2.855475e-02
4.621422e-02
4.271380e-02
4.921983e-02
4.621422e-02
6.539331e-02
6.139163e-02
4.621422e-02
4.271380e-02
6.139163e-02
5.673101e-02
6.539331e-02
6.139163e-02
8.136730e-02
7.637451e-02
6.139163e-02
5.673101e-02
7.637451e-02
7.055936e-02
8.136730e-02
7.637451e-02
9.709234e-02
9.111465e-02
7.637451e-02
7.055936e-02
9.111465e-02
8.415207e-02
9.709234e-02
9.111465e-02
1.125193e-01
1.055641e-01
9.111465e-02
8.415207e-02
1.055641e-01
9.746263e-02
1.125193e-01
1.055641e-01
1.275992e-01
1.196753e-01
1.055641e-01
9.746263e-02
1.196753e-01
1.104449e-01
1.275992e-01
1.196753e-01
1.422838e-01
1.334011e-01
1.196753e-01
1.104449e-01
1.334011e-01
1.230530e-01
1.422838e-01
1.334011e-01
1.565249e-01
1.466946e-01
1.334011e-01
1.230530e-01
1.466946e-01
1.352418e-01
1.565249e-01
1.466946e-01
1.702750e-01
1.595096e-01
1.466946e-01
1.352418e-01
1.595096e-01
1.469664e-01
1.702750e-01
1.595096e-01
1.834871e-01
1.718004e-01
1.595096e-01
1.469664e-01
1.718004e-01
1.581827e-01
1.834871e-01
1.718004e-01
1.961148e-01
1.835219e-01
1.718004e-01
1.581827e-01
1.835219e-01
1.688472e-01
1.961148e-01
1.835219e-01
2.081122e-01
1.946297e-01
1.835219e-01
1.688472e-01
1.946297e-01
1.789171e-01
2.081122e-01
1.946297e-01
2.194341e-01
2.050801e-01
1.946297e-01
1.789171e-01
2.050801e-01
1.883507e-01
2.194341e-01
2.050801e-01
2.300359e-01
2.148300e-01
2.050801e-01
1.883507e-01
2.148300e-01
1.971069e-01
2.300359e-01
2.148300e-01
2.398737e-01
2.238374e-01
2.148300e-01
1.971069e-01
2.238374e-01
2.051458e-01
2.398737e-01
2.238374e-01
2.489041e-01
2.320610e-01
2.238374e-01
2.051458e-01
2.320610e-01
2.124288e-01
2.489041e-01
2.320610e-01
2.570846e-01
2.394604e-01
2.320610e-01
2.124288e-01
2.394604e-01
2.189184e-01
2.570846e-01
2.394604e-01
2.643730e-01
2.459961e-01
2.394604e-01
2.189184e-01
2.459961e-01
2.245789e-01
2.643730e-01
2.459961e-01
2.707277e-01
2.516297e-01
2.459961e-01
2.245789e-01
2.516297e-01
2.293759e-01
2.707277e-01
2.516297e-01
2.761076e-01
2.563237e-01
2.516297e-01
2.293759e-01
2.563237e-01
2.332773e-01
2.761076e-01
2.563237e-01
2.804715e-01
2.600416e-01
2.563237e-01
2.332773e-01
2.600416e-01
2.362531e-01
2.804715e-01
2.600416e-01
2.837786e-01
2.627479e-01
2.600416e-01
2.362531e-01
2.627479e-01
2.382757e-01
2.837786e-01
2.627479e-01
2.859879e-01
2.644082e-01
2.627479e-01
2.382757e-01
2.644082e-01
2.393205e-01
2.859879e-01
2.644082e-01
2.870580e-01
2.649890e-01
2.644082e-01
2.393205e-01
2.649890e-01
2.393661e-01
2.870580e-01
2.649890e-01
2.869476e-01
2.644577e-01
2.649890e-01
2.393661e-01
2.644577e-01
2.383949e-01
2.869476e-01
2.644577e-01
2.856147e-01
2.627825e-01
2.644577e-01
2.383949e-01
2.627825e-01
2.363933e-01
2.856147e-01
2.627825e-01
2.830188e-01
2.599327e-01
2.627825e-01
2.363933e-01
2.599327e-01
2.333515e-01
2.830188e-01
2.599327e-01
2.791225e-01
2.558792e-01
2.599327e-01
2.333515e-01
2.558792e-01
2.292632e-01
2.791225e-01
2.558792e-01
2.738986e-01
2.505978e-01
2.558792e-01
2.292632e-01
2.505978e-01
2.241208e-01
2.738986e-01
2.505978e-01
2.673439e-01
2.440776e-01
2.505978e-01
2.241208e-01
2.440776e-01
2.179018e-01
2.673439e-01
2.440776e-01
2.595282e-01
2.363614e-01
2.440776e-01
2.179018e-01
2.363614e-01
2.105475e-01
2.595282e-01
2.363614e-01
2.506287e-01
2.275754e-01
2.363614e-01
2.105475e-01
2.275754e-01
2.016599e-01
2.506287e-01
2.275754e-01
2.413643e-01
2.186986e-01
2.275754e-01
2.016599e-01
2.186986e-01
1.934250e-01
2.413643e-01
2.186986e-01
2.320385e-01
2.100101e-01
2.186986e-01
1.934250e-01
2.100101e-01
1.858974e-01
2.320385e-01
2.100101e-01
2.228993e-01
2.017291e-01
2.100101e-01
1.858974e-01
2.017291e-01
1.788469e-01
2.228993e-01
2.017291e-01
2.139462e-01
1.937750e-01
2.017291e-01
1.788469e-01
1.937750e-01
1.721440e-01
2.139462e-01
1.937750e-01
2.051617e-01
1.860716e-01
1.937750e-01
1.721440e-01
1.860716e-01
1.656976e-01
2.051617e-01
1.860716e-01
1.965167e-01
1.785484e-01
1.860716e-01
1.656976e-01
1.785484e-01
1.594263e-01
1.965167e-01
1.785484e-01
1.879821e-01
1.711472e-01
1.785484e-01
1.594263e-01
1.711472e-01
1.532601e-01
1.879821e-01
1.711472e-01
1.795307e-01
1.638200e-01
1.711472e-01
1.532601e-01
1.638200e-01
1.471407e-01
1.795307e-01
1.638200e-01
1.711381e-01
1.565276e-01
1.638200e-01
1.471407e-01
1.565276e-01
1.410207e-01
1.711381e-01
1.565276e-01
1.627828e-01
1.492388e-01
1.565276e-01
1.410207e-01
1.492388e-01
1.348628e-01
1.627828e-01
1.492388e-01
1.544464e-01
1.419290e-01
1.492388e-01
1.348628e-01
1.419290e-01
1.286383e-01
1.544464e-01
1.419290e-01
1.461134e-01
1.345791e-01
1.419290e-01
1.286383e-01
1.345791e-01
1.223263e-01
1.461134e-01
1.345791e-01
1.377710e-01
1.271750e-01
1.345791e-01
1.223263e-01
1.271750e-01
1.159123e-01
1.377710e-01
1.271750e-01
1.294092e-01
1.197066e-01
1.271750e-01
1.159123e-01
1.197066e-01
1.093868e-01
1.294092e-01
1.197066e-01
1.210201e-01
1.121673e-01
1.197066e-01
1.093868e-01
1.121673e-01
1.027449e-01
1.210201e-01
1.121673e-01
1.125980e-01
1.045532e-01
1.121673e-01
1.027449e-01
1.045532e-01
9.598502e-02
1.125980e-01
1.045532e-01
1.041390e-01
9.686296e-02
1.045532e-01
9.598502e-02
9.686296e-02
8.910841e-02
1.041390e-01
9.686296e-02
9.564074e-02
8.909712e-02
9.686296e-02
8.910841e-02
8.909712e-02
8.211865e-02
9.564074e-02
8.909712e-02
8.710245e-02
8.125785e-02
8.909712e-02
8.211865e-02
8.125785e-02
7.502108e-02
8.710245e-02
8.125785e-02
7.852445e-02
7.334864e-02
8.125785e-02
7.502108e-02
7.334864e-02
6.782246e-02
7.852445e-02
7.334864e-02
6.990812e-02
6.537409e-02
7.334864e-02
6.782246e-02
6.537409e-02
6.053066e-02
6.990812e-02
6.537409e-02
6.125576e-02
5.733966e-02
6.537409e-02
6.053066e-02
5.733966e-02
5.315442e-02
6.125576e-02
5.733966e-02
5.257040e-02
4.925154e-02
5.733966e-02
5.315442e-02
4.925154e-02
4.570318e-02
5.257040e-02
4.925154e-02
4.385569e-02
4.111649e-02
4.925154e-02
4.570318e-02
4.111649e-02
3.818687e-02
4.385569e-02
4.111649e-02
3.511580e-02
3.294171e-02
4.111649e-02
3.818687e-02
3.294171e-02
3.061584e-02
3.511580e-02
3.294171e-02
2.635528e-02
2.473475e-02
3.294171e-02
3.061584e-02
2.473475e-02
2.300071e-02
2.635528e-02
2.473475e-02
1.757904e-02
1.650346e-02
2.473475e-02
2.300071e-02
1.650346e-02
1.535235e-02
1.757904e-02
1.650346e-02
8.792193e-03
8.255825e-03
1.650346e-02
1.535235e-02
8.255825e-03
7.681745e-03
8.792193e-03
8.255825e-03
0.000000e+00
0.000000e+00
8.255825e-03
7.681745e-03
0.000000e+00
0.000000e+00
</DataArray>
<DataArray type="Float32" Name="V4" format="ascii">
8.500000e-01
9.250000e-01
8.500000e-01
9.250000e-01
9.250000e-01
1.000000e+00