<?xml version="1.0"?>
<VTKFile type="UnstructuredGrid" version="0.1" byte_order="LittleEndian" compressor="vtkZLibDataCompressor">
<UnstructuredGrid>
<Piece NumberOfPoints="504" NumberOfCells="126">
<Points>
<DataArray type="Float32" NumberOfComponents="3" format="ascii">
0.000000e+00 4.445719e-01 0.000000e+00
0.000000e+00 4.717670e-01 0.000000e+00
3.676547e-02 4.445800e-01 0.000000e+00
3.675969e-02 4.717694e-01 0.000000e+00
0.000000e+00 4.717670e-01 0.000000e+00
0.000000e+00 5.037500e-01 0.000000e+00
3.675969e-02 4.717694e-01 0.000000e+00
3.675678e-02 5.037500e-01 0.000000e+00
3.676547e-02 4.445800e-01 0.000000e+00
3.675969e-02 4.717694e-01 0.000000e+00
7.352993e-02 4.445946e-01 0.000000e+00
7.351831e-02 4.717774e-01 0.000000e+00
3.675969e-02 4.717694e-01 0.000000e+00
3.675678e-02 5.037500e-01 0.000000e+00
7.351831e-02 4.717774e-01 0.000000e+00
7.351239e-02 5.037500e-01 0.000000e+00
7.352993e-02 4.445946e-01 0.000000e+00
7.351831e-02 4.717774e-01 0.000000e+00
1.102920e-01 4.446190e-01 0.000000e+00
1.102746e-01 4.717906e-01 0.000000e+00
7.351831e-02 4.717774e-01 0.000000e+00
7.351239e-02 5.037500e-01 0.000000e+00
1.102746e-01 4.717906e-01 0.000000e+00
1.102657e-01 5.037500e-01 0.000000e+00
1.102920e-01 4.446190e-01 0.000000e+00
1.102746e-01 4.717906e-01 0.000000e+00
1.470505e-01 4.446530e-01 0.000000e+00
1.470273e-01 4.718090e-01 0.000000e+00
1.102746e-01 4.717906e-01 0.000000e+00
1.102657e-01 5.037500e-01 0.000000e+00
1.470273e-01 4.718090e-01 0.000000e+00
1.470155e-01 5.037500e-01 0.000000e+00
1.470505e-01 4.446530e-01 0.000000e+00
1.470273e-01 4.718090e-01 0.000000e+00
1.838041e-01 4.446968e-01 0.000000e+00
1.837753e-01 4.718327e-01 0.000000e+00
1.470273e-01 4.718090e-01 0.000000e+00
1.470155e-01 5.037500e-01 0.000000e+00
1.837753e-01 4.718327e-01 0.000000e+00
1.837607e-01 5.037500e-01 0.000000e+00
1.838041e-01 4.446968e-01 0.000000e+00
1.837753e-01 4.718327e-01 0.000000e+00
2.205518e-01 4.447502e-01 0.000000e+00
2.205174e-01 4.718617e-01 0.000000e+00
1.837753e-01 4.718327e-01 0.000000e+00
1.837607e-01 5.037500e-01 0.000000e+00
2.205174e-01 4.718617e-01 0.000000e+00
2.205000e-01 5.037500e-01 0.000000e+00
2.205518e-01 4.447502e-01 0.000000e+00
2.205174e-01 4.718617e-01 0.000000e+00
2.572923e-01 4.448133e-01 0.000000e+00
2.572523e-01 4.718958e-01 0.000000e+00
2.205174e-01 4.718617e-01 0.000000e+00
2.205000e-01 5.037500e-01 0.000000e+00
2.572523e-01 4.718958e-01 0.000000e+00
2.572322e-01 5.037500e-01 0.000000e+00
2.572923e-01 4.448133e-01 0.000000e+00
2.572523e-01 4.718958e-01 0.000000e+00
2.940242e-01 4.448859e-01 0.000000e+00
2.939789e-01 4.719351e-01 0.000000e+00
2.572523e-01 4.718958e-01 0.000000e+00
2.572322e-01 5.037500e-01 0.000000e+00
2.939789e-01 4.719351e-01 0.000000e+00
2.939562e-01 5.037500e-01 0.000000e+00
2.940242e-01 4.448859e-01 0.000000e+00
2.939789e-01 4.719351e-01 0.000000e+00
3.307465e-01 4.449681e-01 0.000000e+00
3.306959e-01 4.719796e-01 0.000000e+00
2.939789e-01 4.719351e-01 0.000000e+00
2.939562e-01 5.037500e-01 0.000000e+00
3.306959e-01 4.719796e-01 0.000000e+00
3.306707e-01 5.037500e-01 0.000000e+00
3.307465e-01 4.449681e-01 0.000000e+00
3.306959e-01 4.719796e-01 0.000000e+00
3.674576e-01 4.450597e-01 0.000000e+00
3.674020e-01 4.720293e-01 0.000000e+00
3.306959e-01 4.719796e-01 0.000000e+00
3.306707e-01 5.037500e-01 0.000000e+00
3.674020e-01 4.720293e-01 0.000000e+00
3.673745e-01 5.037500e-01 0.000000e+00
3.674576e-01 4.450597e-01 0.000000e+00
3.674020e-01 4.720293e-01 0.000000e+00
4.041564e-01 4.451607e-01 0.000000e+00
4.040959e-01 4.720840e-01 0.000000e+00
3.674020e-01 4.720293e-01 0.000000e+00
3.673745e-01 5.037500e-01 0.000000e+00
4.040959e-01 4.720840e-01 0.000000e+00
4.040662e-01 5.037500e-01 0.000000e+00
4.041564e-01 4.451607e-01 0.000000e+00
4.040959e-01 4.720840e-01 0.000000e+00
4.408414e-01 4.452710e-01 0.000000e+00
4.407763e-01 4.721438e-01 0.000000e+00
4.040959e-01 4.720840e-01 0.000000e+00
4.040662e-01 5.037500e-01 0.000000e+00
4.407763e-01 4.721438e-01 0.000000e+00
4.407447e-01 5.037500e-01 0.000000e+00
4.408414e-01 4.452710e-01 0.000000e+00
4.407763e-01 4.721438e-01 0.000000e+00
4.775112e-01 4.453905e-01 0.000000e+00
4.774418e-01 4.722086e-01 0.000000e+00
4.407763e-01 4.721438e-01 0.000000e+00
4.407447e-01 5.037500e-01 0.000000e+00
4.774418e-01 4.722086e-01 0.000000e+00
4.774085e-01 5.037500e-01 0.000000e+00
4.775112e-01 4.453905e-01 0.000000e+00
4.774418e-01 4.722086e-01 0.000000e+00
5.141645e-01 4.455192e-01 0.000000e+00
5.140911e-01 4.722784e-01 0.000000e+00
4.774418e-01 4.722086e-01 0.000000e+00
4.774085e-01 5.037500e-01 0.000000e+00
5.140911e-01 4.722784e-01 0.000000e+00
5.140564e-01 5.037500e-01 0.000000e+00
5.141645e-01 4.455192e-01 0.000000e+00
5.140911e-01 4.722784e-01 0.000000e+00
5.507997e-01 4.456570e-01 0.000000e+00
5.507227e-01 4.723531e-01 0.000000e+00
5.140911e-01 4.722784e-01 0.000000e+00
5.140564e-01 5.037500e-01 0.000000e+00
5.507227e-01 4.723531e-01 0.000000e+00
5.506870e-01 5.037500e-01 0.000000e+00
5.507997e-01 4.456570e-01 0.000000e+00
5.507227e-01 4.723531e-01 0.000000e+00
5.874152e-01 4.458037e-01 0.000000e+00
5.873352e-01 4.724327e-01 0.000000e+00
5.507227e-01 4.723531e-01 0.000000e+00
5.506870e-01 5.037500e-01 0.000000e+00
5.873352e-01 4.724327e-01 0.000000e+00
5.872989e-01 5.037500e-01 0.000000e+00
5.874152e-01 4.458037e-01 0.000000e+00
5.873352e-01 4.724327e-01 0.000000e+00
6.240095e-01 4.459593e-01 0.000000e+00
6.239270e-01 4.725172e-01 0.000000e+00
5.873352e-01 4.724327e-01 0.000000e+00
5.872989e-01 5.037500e-01 0.000000e+00
6.239270e-01 4.725172e-01 0.000000e+00
6.238907e-01 5.037500e-01 0.000000e+00
6.240095e-01 4.459593e-01 0.000000e+00
6.239270e-01 4.725172e-01 0.000000e+00
6.605810e-01 4.461236e-01 0.000000e+00
6.604966e-01 4.726065e-01 0.000000e+00
6.239270e-01 4.725172e-01 0.000000e+00
6.238907e-01 5.037500e-01 0.000000e+00
6.604966e-01 4.726065e-01 0.000000e+00
6.604610e-01 5.037500e-01 0.000000e+00
6.605810e-01 4.461236e-01 0.000000e+00
6.604966e-01 4.726065e-01 0.000000e+00
6.971277e-01 4.462966e-01 0.000000e+00
6.970425e-01 4.727005e-01 0.000000e+00
6.604966e-01 4.726065e-01 0.000000e+00
6.604610e-01 5.037500e-01 0.000000e+00
6.970425e-01 4.727005e-01 0.000000e+00
6.970083e-01 5.037500e-01 0.000000e+00
6.971277e-01 4.462966e-01 0.000000e+00
6.970425e-01 4.727005e-01 0.000000e+00
7.336480e-01 4.464781e-01 0.000000e+00
7.335629e-01 4.727993e-01 0.000000e+00
6.970425e-01 4.727005e-01 0.000000e+00
6.970083e-01 5.037500e-01 0.000000e+00
7.335629e-01 4.727993e-01 0.000000e+00
7.335314e-01 5.037500e-01 0.000000e+00
7.336480e-01 4.464781e-01 0.000000e+00
7.335629e-01 4.727993e-01 0.000000e+00
7.701398e-01 4.466680e-01 0.000000e+00
7.700563e-01 4.729029e-01 0.000000e+00
7.335629e-01 4.727993e-01 0.000000e+00
7.335314e-01 5.037500e-01 0.000000e+00
7.700563e-01 4.729029e-01 0.000000e+00
7.700286e-01 5.037500e-01 0.000000e+00
7.701398e-01 4.466680e-01 0.000000e+00
7.700563e-01 4.729029e-01 0.000000e+00
8.066011e-01 4.468663e-01 0.000000e+00
8.065209e-01 4.730111e-01 0.000000e+00
7.700563e-01 4.729029e-01 0.000000e+00
7.700286e-01 5.037500e-01 0.000000e+00
8.065209e-01 4.730111e-01 0.000000e+00
8.064987e-01 5.037500e-01 0.000000e+00
8.066011e-01 4.468663e-01 0.000000e+00
8.065209e-01 4.730111e-01 0.000000e+00
8.430297e-01 4.470727e-01 0.000000e+00
8.429549e-01 4.731240e-01 0.000000e+00
8.065209e-01 4.730111e-01 0.000000e+00
8.064987e-01 5.037500e-01 0.000000e+00
8.429549e-01 4.731240e-01 0.000000e+00
8.429403e-01 5.037500e-01 0.000000e+00
8.430297e-01 4.470727e-01 0.000000e+00
8.429549e-01 4.731240e-01 0.000000e+00
8.794233e-01 4.472872e-01 0.000000e+00
8.793565e-01 4.732417e-01 0.000000e+00
8.429549e-01 4.731240e-01 0.000000e+00
8.429403e-01 5.037500e-01 0.000000e+00
8.793565e-01 4.732417e-01 0.000000e+00
8.793522e-01 5.037500e-01 0.000000e+00
8.794233e-01 4.472872e-01 0.000000e+00
8.793565e-01 4.732417e-01 0.000000e+00
9.157792e-01 4.475098e-01 0.000000e+00
9.157239e-01 4.733642e-01 0.000000e+00
8.793565e-01 4.732417e-01 0.000000e+00
8.793522e-01 5.037500e-01 0.000000e+00
9.157239e-01 4.733642e-01 0.000000e+00
9.157333e-01 5.037500e-01 0.000000e+00
9.157792e-01 4.475098e-01 0.000000e+00
9.157239e-01 4.733642e-01 0.000000e+00
9.520946e-01 4.477403e-01 0.000000e+00
9.520553e-01 4.734915e-01 0.000000e+00
9.157239e-01 4.733642e-01 0.000000e+00
9.157333e-01 5.037500e-01 0.000000e+00
9.520553e-01 4.734915e-01 0.000000e+00
9.520827e-01 5.037500e-01 0.000000e+00
9.520946e-01 4.477403e-01 0.000000e+00
9.520553e-01 4.734915e-01 0.000000e+00
9.883664e-01 4.479787e-01 0.000000e+00
9.883487e-01 4.736238e-01 0.000000e+00
9.520553e-01 4.734915e-01 0.000000e+00
9.520827e-01 5.037500e-01 0.000000e+00
9.883487e-01 4.736238e-01 0.000000e+00
9.883996e-01 5.037500e-01 0.000000e+00
9.883664e-01 4.479787e-01 0.000000e+00
9.883487e-01 4.736238e-01 0.000000e+00
1.024591e+00 4.482248e-01 0.000000e+00
1.024602e+00 4.737613e-01 0.000000e+00
9.883487e-01 4.736238e-01 0.000000e+00
9.883996e-01 5.037500e-01 0.000000e+00
1.024602e+00 4.737613e-01 0.000000e+00
1.024684e+00 5.037500e-01 0.000000e+00
1.024591e+00 4.482248e-01 0.000000e+00
1.024602e+00 4.737613e-01 0.000000e+00
1.060765e+00 4.484789e-01 0.000000e+00
1.060814e+00 4.739042e-01 0.000000e+00
1.024602e+00 4.737613e-01 0.000000e+00
1.024684e+00 5.037500e-01 0.000000e+00
1.060814e+00 4.739042e-01 0.000000e+00
1.060935e+00 5.037500e-01 0.000000e+00
1.060765e+00 4.484789e-01 0.000000e+00
1.060814e+00 4.739042e-01 0.000000e+00
1.096883e+00 4.487407e-01 0.000000e+00
1.096982e+00 4.740530e-01 0.000000e+00
1.060814e+00 4.739042e-01 0.000000e+00
1.060935e+00 5.037500e-01 0.000000e+00
1.096982e+00 4.740530e-01 0.000000e+00
1.097155e+00 5.037500e-01 0.000000e+00
1.096883e+00 4.487407e-01 0.000000e+00
1.096982e+00 4.740530e-01 0.000000e+00
1.132940e+00 4.490106e-01 0.000000e+00
1.133105e+00 4.742081e-01 0.000000e+00
1.096982e+00 4.740530e-01 0.000000e+00
1.097155e+00 5.037500e-01 0.000000e+00
1.133105e+00 4.742081e-01 0.000000e+00
1.133345e+00 5.037500e-01 0.000000e+00
1.132940e+00 4.490106e-01 0.000000e+00
[...]
<PointData>
<DataArray type="Float32" Name="V1" format="ascii">
1.430777e+02
5.393692e+01
1.431316e+02
5.399084e+01
5.620456e+01
1.238269e+01
5.622739e+01
1.240551e+01
1.431530e+02
5.395841e+01
1.432866e+02
5.409202e+01
5.624672e+01
1.239661e+01
5.630907e+01
1.245895e+01
1.433387e+02
5.403402e+01
1.435590e+02
5.425431e+01
5.634595e+01
1.243913e+01
5.645273e+01
1.254591e+01
1.436393e+02
5.416913e+01
1.439472e+02
5.447698e+01
5.650651e+01
1.251449e+01
5.665754e+01
1.266552e+01
1.440555e+02
5.436408e+01
1.444520e+02
5.476054e+01
5.672863e+01
1.262270e+01
5.692412e+01
1.281819e+01
1.445884e+02
5.461944e+01
1.450746e+02
5.510566e+01
5.701283e+01
1.276398e+01
5.725323e+01
1.300438e+01
1.452393e+02
5.493593e+01
1.458166e+02
5.551322e+01
5.735985e+01
1.293872e+01
5.764576e+01
1.322463e+01
1.460099e+02
5.531442e+01
1.466798e+02
5.598429e+01
5.777059e+01
1.314739e+01
5.810277e+01
1.347957e+01
1.469021e+02
5.575592e+01
1.476663e+02
5.652013e+01
5.824614e+01
1.339058e+01
5.862551e+01
1.376995e+01
1.479182e+02
5.626164e+01
1.487788e+02
5.712219e+01
5.878779e+01
1.366899e+01
5.921540e+01
1.409660e+01
1.490607e+02
5.683295e+01
1.500199e+02
5.779211e+01
5.939701e+01
1.398343e+01
5.987407e+01
1.446050e+01
1.503326e+02
5.747144e+01
1.513929e+02
5.853173e+01
6.007547e+01
1.433484e+01
6.060336e+01
1.486273e+01
1.517371e+02
5.817888e+01
1.529013e+02
5.934313e+01
6.082507e+01
1.472427e+01
6.140534e+01
1.530454e+01
1.532777e+02
5.895727e+01
1.545490e+02
6.022858e+01
6.164791e+01
1.515292e+01
6.228231e+01
1.578731e+01
1.549585e+02
5.980883e+01
1.563403e+02
6.119063e+01
6.254635e+01
1.562214e+01
6.323681e+01
1.631259e+01
1.567836e+02
6.073604e+01
1.582797e+02
6.223207e+01
6.352300e+01
1.613343e+01
6.427168e+01
1.688212e+01
1.587579e+02
6.174163e+01
1.603722e+02
6.335596e+01
6.458074e+01
1.668852e+01
6.539006e+01
1.749784e+01
1.608863e+02
6.282862e+01
1.626234e+02
6.456568e+01
6.572276e+01
1.728928e+01
6.659540e+01
1.816193e+01
1.631743e+02
6.400035e+01
1.650388e+02
6.586491e+01
6.695256e+01
1.793789e+01
6.789153e+01
1.887686e+01
1.656276e+02
6.526050e+01
1.676248e+02
6.725769e+01
6.827401e+01
1.863674e+01
6.928265e+01
1.964537e+01
1.682524e+02
6.661311e+01
1.703877e+02
6.874844e+01
6.969138e+01
1.938856e+01
7.077344e+01
2.047062e+01
1.710550e+02
6.806266e+01
1.733344e+02
7.034198e+01
7.120935e+01
2.019646e+01
7.236905e+01
2.135616e+01
1.740421e+02
6.961408e+01
1.764716e+02
7.204358e+01
7.283312e+01
2.106397e+01
7.407524e+01
2.230609e+01
1.772204e+02
7.127284e+01
1.798066e+02
7.385903e+01
7.456842e+01
2.199517e+01
7.589838e+01
2.332513e+01
1.805965e+02
7.304501e+01
1.833461e+02
7.579464e+01
7.642160e+01
2.299477e+01
7.784563e+01
2.441879e+01
1.841770e+02
7.493736e+01
1.870970e+02
7.785735e+01
7.839976e+01
2.406826e+01
7.992503e+01
2.559354e+01
1.879677e+02
7.695745e+01
1.910650e+02
8.005477e+01
8.051080e+01
2.522216e+01
8.214570e+01
2.685706e+01
1.919737e+02
7.911382e+01
1.952551e+02
8.239528e+01
8.276362e+01
2.646418e+01
8.451800e+01
2.821856e+01
1.961984e+02
8.141613e+01
1.996704e+02
8.488811e+01
8.516829e+01
2.780364e+01
8.705387e+01
2.968922e+01
2.006429e+02
8.387542e+01
2.043110e+02
8.754351e+01
8.773625e+01
2.925186e+01
8.976712e+01
3.128274e+01
2.053052e+02
8.650442e+01
2.091736e+02
9.037282e+01
9.048063e+01
3.082278e+01
9.267397e+01
3.301612e+01
2.101780e+02
8.931793e+01
2.142487e+02
9.338866e+01
9.341663e+01
3.253373e+01
9.579358e+01
3.491069e+01
2.152475e+02
9.233332e+01
2.195193e+02
9.660513e+01
9.656193e+01
3.440657e+01
9.914890e+01
3.699354e+01
2.204903e+02
9.557112e+01
2.249570e+02
1.000379e+02
9.993731e+01
3.646917e+01
1.027676e+02
3.929950e+01
2.258701e+02
9.905583e+01
2.305186e+02
1.037043e+02
1.035672e+02
3.875757e+01
1.066836e+02
4.187395e+01
2.313332e+02
1.028167e+02
2.361400e+02
1.076235e+02
1.074805e+02
4.131912e+01
1.109382e+02
4.477687e+01
2.368027e+02
1.068884e+02
2.417299e+02
1.118156e+02
1.117103e+02
4.421726e+01
1.155821e+02
4.808905e+01
2.421708e+02
1.113120e+02
2.471608e+02
1.163020e+02
1.162933e+02
4.753922e+01
1.206762e+02
5.192206e+01
2.472900e+02
1.161363e+02
2.522594e+02
1.211057e+02
1.212643e+02
5.140972e+01
1.262908e+02
5.643624e+01
2.519579e+02
1.214228e+02
2.567959e+02
1.262608e+02
1.266386e+02
5.601830e+01
1.324993e+02
6.187901e+01
2.558879e+02
1.272713e+02
2.604781e+02
1.318614e+02
1.323596e+02
6.168632e+01
1.393640e+02
6.869068e+01
2.586183e+02
1.339344e+02
2.629826e+02
1.382987e+02
1.381872e+02
6.905348e+01
1.469570e+02
7.782321e+01
2.591449e+02
1.423319e+02
2.640575e+02
1.472445e+02
1.429944e+02
8.045430e+01
1.551997e+02
9.265964e+01
2.586950e+02
1.534136e+02
2.640177e+02
1.587363e+02
1.506246e+02
9.807993e+01
1.609069e+02
1.083622e+02
2.608689e+02
1.617512e+02
2.663916e+02
1.672739e+02
1.593068e+02
1.083286e+02
1.668064e+02
1.158282e+02
2.655285e+02
1.680301e+02
2.720512e+02
1.745528e+02
1.666785e+02
1.158379e+02
1.736713e+02
1.228307e+02
2.722502e+02
1.742567e+02
2.794807e+02
1.814872e+02
1.740766e+02
1.225268e+02
1.806361e+02
1.290863e+02
2.803157e+02
1.805484e+02
2.879939e+02
1.882266e+02
1.813866e+02
1.285635e+02
1.875403e+02
1.347172e+02
2.892251e+02
1.868666e+02
2.971217e+02
1.947631e+02
1.885231e+02
1.340433e+02
1.942860e+02
1.398062e+02
2.986005e+02
1.931308e+02
3.065200e+02
2.010503e+02
1.954205e+02
1.390336e+02
2.008002e+02
1.444132e+02
3.081433e+02
1.992558e+02
3.159222e+02
2.070347e+02
2.020217e+02
1.435849e+02
2.070206e+02
1.485838e+02
3.176130e+02
2.051635e+02
3.251160e+02
2.126665e+02
2.082768e+02
1.477348e+02
2.128940e+02
1.523520e+02
3.268141e+02
2.107869e+02
3.339303e+02
2.179032e+02
2.141428e+02
1.515109e+02
2.183753e+02
1.557434e+02
3.355873e+02
2.160697e+02
3.422267e+02
2.227091e+02
2.195833e+02
1.549324e+02
2.234274e+02
1.587765e+02
3.438036e+02
2.209656e+02
3.498932e+02
2.270553e+02
2.245681e+02
1.580130e+02
2.280196e+02
1.614645e+02
3.513583e+02
2.254370e+02
3.568399e+02
2.309186e+02
2.290724e+02
1.607621e+02
2.321272e+02
1.638169e+02
3.581679e+02
2.294536e+02
3.629952e+02
2.342809e+02
2.330759e+02
1.631858e+02
2.357306e+02
1.658404e+02
3.641655e+02
2.329912e+02
3.683022e+02
2.371279e+02
2.365626e+02
1.652883e+02
2.388139e+02
1.675396e+02
3.692990e+02
2.360305e+02
3.727172e+02
2.394487e+02
2.395197e+02
1.670724e+02
2.413651e+02
1.689177e+02
3.735281e+02
2.385568e+02
3.762065e+02
2.412352e+02
2.419374e+02
1.685395e+02
2.433748e+02
1.699769e+02
3.768222e+02
2.405585e+02
3.787457e+02
2.424820e+02
2.438083e+02
1.696908e+02
2.448361e+02
1.707186e+02
3.791597e+02
2.420272e+02
3.803177e+02
2.431853e+02
2.451271e+02
1.705268e+02
2.457442e+02
1.711439e+02
3.805257e+02
2.429568e+02
3.809124e+02
2.433435e+02
2.458902e+02
1.710477e+02
2.460960e+02
1.712535e+02
</DataArray>
<DataArray type="Float32" Name="V2" format="ascii">
4.445719e-01
4.717670e-01
4.453584e-01
4.725393e-01
4.717670e-01
5.037500e-01
4.725393e-01
5.045098e-01
4.453584e-01
4.725393e-01
4.477071e-01
4.748555e-01
4.725393e-01
5.045098e-01
4.748555e-01
5.067881e-01
4.477071e-01
4.748555e-01
4.516179e-01
4.787122e-01
4.748555e-01
5.067881e-01
4.787122e-01
5.105816e-01
4.516179e-01
4.787122e-01
4.570850e-01
4.841037e-01
4.787122e-01
5.105816e-01
4.841037e-01
5.158848e-01
4.570850e-01
4.841037e-01
4.641005e-01
4.910222e-01
4.841037e-01
5.158848e-01
4.910222e-01
5.226900e-01
4.641005e-01
4.910222e-01
4.726543e-01
4.994578e-01
4.910222e-01
5.226900e-01
4.994578e-01
5.309874e-01
4.726543e-01
4.994578e-01
4.827339e-01
5.093980e-01
4.994578e-01
5.309874e-01
5.093980e-01
5.407648e-01
4.827339e-01
5.093980e-01
4.943247e-01
5.208286e-01
5.093980e-01
5.407648e-01
5.208286e-01
5.520082e-01
4.943247e-01
5.208286e-01
5.074098e-01
5.337329e-01
5.208286e-01
5.520082e-01
5.337329e-01
5.647011e-01
5.074098e-01
5.337329e-01
5.219701e-01
5.480920e-01
5.337329e-01
5.647011e-01
5.480920e-01
5.788251e-01
5.219701e-01
5.480920e-01
5.379844e-01
5.638850e-01
5.480920e-01
5.788251e-01
5.638850e-01
5.943595e-01
5.379844e-01
5.638850e-01
5.554291e-01
5.810888e-01
5.638850e-01
5.943595e-01
5.810888e-01
6.112816e-01
5.554291e-01
5.810888e-01
5.742788e-01
5.996783e-01
5.810888e-01
6.112816e-01
5.996783e-01
6.295667e-01
5.742788e-01
5.996783e-01
5.945058e-01
6.196260e-01
5.996783e-01
6.295667e-01
6.196260e-01
6.491878e-01
5.945058e-01
6.196260e-01
6.160801e-01
6.409027e-01
6.196260e-01
6.491878e-01
6.409027e-01
6.701162e-01
6.160801e-01
6.409027e-01
6.389700e-01
6.634769e-01
6.409027e-01
6.701162e-01
6.634769e-01
6.923210e-01
6.389700e-01
6.634769e-01
6.631416e-01
6.873153e-01
6.634769e-01
6.923210e-01
6.873153e-01
7.157693e-01
6.631416e-01
6.873153e-01
6.885588e-01
7.123825e-01
6.873153e-01
7.157693e-01
7.123825e-01
7.404264e-01
6.885588e-01
7.123825e-01
7.151839e-01
7.386411e-01
7.123825e-01
7.404264e-01
7.386411e-01
7.662556e-01
7.151839e-01
7.386411e-01
7.429768e-01
7.660520e-01
7.386411e-01
7.662556e-01
7.660520e-01
7.932184e-01
7.429768e-01
7.660520e-01
7.718958e-01
7.945740e-01
7.660520e-01
7.932184e-01
7.945740e-01
8.212746e-01
7.718958e-01
7.945740e-01
8.018971e-01
8.241644e-01
7.945740e-01
8.212746e-01
8.241644e-01
8.503821e-01
8.018971e-01
8.241644e-01
8.329353e-01
8.547785e-01
8.241644e-01
8.503821e-01
8.547785e-01
8.804972e-01
8.329353e-01
8.547785e-01
8.649628e-01
8.863698e-01
8.547785e-01
8.804972e-01
8.863698e-01
9.115746e-01
8.649628e-01
8.863698e-01
8.979305e-01
9.188904e-01
8.863698e-01
9.115746e-01
9.188904e-01
9.435673e-01
8.979305e-01
9.188904e-01
9.317872e-01
9.522907e-01
9.188904e-01
9.435673e-01
9.522907e-01
9.764272e-01
9.317872e-01
9.522907e-01
9.664802e-01
9.865193e-01
9.522907e-01
9.764272e-01
9.865193e-01
1.010105e+00
9.664802e-01
9.865193e-01
1.001955e+00
1.021524e+00
9.865193e-01
1.010105e+00
1.021524e+00
1.044549e+00
1.001955e+00
1.021524e+00
1.038154e+00
1.057250e+00
1.021524e+00
1.044549e+00
1.057250e+00
1.079708e+00
1.038154e+00
1.057250e+00
1.075020e+00
1.093643e+00
1.057250e+00
1.079708e+00
1.093643e+00
1.115530e+00
1.075020e+00
1.093643e+00
1.112492e+00
1.130646e+00
1.093643e+00
1.115530e+00
1.130646e+00
1.151961e+00
1.112492e+00
1.130646e+00
1.150508e+00
1.168201e+00
1.130646e+00
1.151961e+00
1.168201e+00
1.188948e+00
1.150508e+00
1.168201e+00
1.189002e+00
1.206250e+00
1.168201e+00
1.188948e+00
1.206250e+00
1.226439e+00
1.189002e+00
1.206250e+00
1.227908e+00
1.244733e+00
1.206250e+00
1.226439e+00
1.244733e+00
1.264380e+00
1.227908e+00
1.244733e+00
1.267154e+00
1.283591e+00
1.244733e+00
1.264380e+00
1.283591e+00
1.302722e+00
1.267154e+00
1.283591e+00
1.306666e+00
1.322762e+00
1.283591e+00
1.302722e+00
1.322762e+00
1.341415e+00
1.306666e+00
1.322762e+00
1.346367e+00
1.362185e+00
1.322762e+00
1.341415e+00
1.362185e+00
1.380416e+00
1.346367e+00
1.362185e+00
1.386171e+00
1.401798e+00
1.362185e+00
1.380416e+00
1.401798e+00
1.419685e+00
1.386171e+00
1.401798e+00
1.425986e+00
1.441535e+00
1.401798e+00
1.419685e+00
1.441535e+00
1.459192e+00
1.425986e+00
1.441535e+00
1.465708e+00
1.481326e+00
1.441535e+00
1.459192e+00
1.481326e+00
1.498920e+00
1.465708e+00
1.481326e+00
1.505205e+00
1.521081e+00
1.481326e+00
1.498920e+00
1.521081e+00
1.538864e+00
1.505205e+00
1.521081e+00
1.544283e+00
1.560636e+00
1.521081e+00
1.538864e+00
1.560636e+00
1.579006e+00
1.544283e+00
1.560636e+00
1.582649e+00
1.599612e+00
1.560636e+00
1.579006e+00
1.599612e+00
1.618880e+00
1.582649e+00
1.599612e+00
1.619520e+00
1.636797e+00
1.599612e+00
1.618880e+00
1.636797e+00
1.656186e+00
1.619520e+00
1.636797e+00
1.653974e+00
1.671553e+00
1.636797e+00
1.656186e+00
1.671553e+00
1.691280e+00
1.653974e+00
1.671553e+00
1.686005e+00
1.704093e+00
1.671553e+00
1.691280e+00
1.704093e+00
1.724330e+00
1.686005e+00
1.704093e+00
1.715703e+00
1.734383e+00
1.704093e+00
1.724330e+00
1.734383e+00
1.755207e+00
1.715703e+00
1.734383e+00
1.743149e+00
1.762431e+00
1.734383e+00
1.755207e+00
1.762431e+00
1.783865e+00
1.743149e+00
1.762431e+00
1.768418e+00
1.788274e+00
1.762431e+00
1.783865e+00
1.788274e+00
1.810302e+00
1.768418e+00
1.788274e+00
1.791585e+00
1.811965e+00
1.788274e+00
1.810302e+00
1.811965e+00
1.834550e+00
1.791585e+00
1.811965e+00
1.812722e+00
1.833569e+00
1.811965e+00
1.834550e+00
1.833569e+00
1.856659e+00
1.812722e+00
1.833569e+00
1.831898e+00
1.853153e+00
1.833569e+00
1.856659e+00
1.853153e+00
1.876692e+00
1.831898e+00
1.853153e+00
1.849180e+00
1.870784e+00
1.853153e+00
1.876692e+00
1.870784e+00
1.894715e+00
1.849180e+00
1.870784e+00
1.864629e+00
1.886528e+00
1.870784e+00
1.894715e+00
1.886528e+00
1.910796e+00
1.864629e+00
1.886528e+00
1.878299e+00
1.900446e+00
1.886528e+00
1.910796e+00
1.900446e+00
1.924999e+00
1.878299e+00
1.900446e+00
1.890243e+00
1.912593e+00
1.900446e+00
1.924999e+00
1.912593e+00
1.937384e+00
1.890243e+00
1.912593e+00
1.900504e+00
1.923019e+00
1.912593e+00
1.937384e+00
1.923019e+00
1.948006e+00
1.900504e+00
1.923019e+00
1.909121e+00
1.931768e+00
1.923019e+00
1.948006e+00
1.931768e+00
1.956913e+00
1.909121e+00
1.931768e+00
1.916127e+00
1.938876e+00
1.931768e+00
1.956913e+00
1.938876e+00
1.964144e+00
1.916127e+00
1.938876e+00
1.921548e+00
1.944374e+00
1.938876e+00
1.964144e+00
1.944374e+00
1.969735e+00
1.921548e+00
1.944374e+00
1.925406e+00
1.948284e+00
1.944374e+00
1.969735e+00
1.948284e+00
1.973709e+00
1.925406e+00
1.948284e+00
1.927714e+00
1.950624e+00
1.948284e+00
1.973709e+00
1.950624e+00
1.976086e+00
1.927714e+00
1.950624e+00
1.928483e+00
1.951402e+00
1.950624e+00
1.976086e+00
1.951402e+00
1.976878e+00
</DataArray>
<DataArray type="Float32" Name="V3" format="ascii">
0.000000e+00
0.000000e+00
2.567035e-02
2.498673e-02
0.000000e+00
0.000000e+00
2.498673e-02
2.418652e-02
2.567035e-02
2.498673e-02
5.127732e-02
4.991076e-02
2.498673e-02
2.418652e-02
4.991076e-02
4.831114e-02
5.127732e-02
4.991076e-02
7.675717e-02
7.470927e-02
4.991076e-02
4.831114e-02
7.470927e-02
7.231209e-02
7.675717e-02
7.470927e-02
1.020466e-01
9.931968e-02
7.470927e-02
7.231209e-02
9.931968e-02
9.612766e-02
1.020466e-01
9.931968e-02
1.270824e-01
1.236796e-01
9.931968e-02
9.612766e-02
1.236796e-01
1.196964e-01
1.270824e-01
1.236796e-01
1.518019e-01
1.477271e-01
1.236796e-01
1.196964e-01
1.477271e-01
1.429571e-01
1.518019e-01
1.477271e-01
1.761424e-01
1.714003e-01
1.477271e-01
1.429571e-01
1.714003e-01
1.658490e-01
1.761424e-01
1.714003e-01
2.000420e-01
1.946379e-01
1.714003e-01
1.658490e-01
1.946379e-01
1.883117e-01
2.000420e-01
1.946379e-01
2.234392e-01
2.173793e-01
1.946379e-01
1.883117e-01
2.173793e-01
2.102852e-01
2.234392e-01
2.173793e-01
2.462730e-01
2.395642e-01
2.173793e-01
2.102852e-01
2.395642e-01
2.317102e-01
2.462730e-01
2.395642e-01
2.684832e-01
2.611331e-01
2.395642e-01
2.317102e-01
2.611331e-01
2.525281e-01
2.684832e-01
2.611331e-01
2.900101e-01
2.820270e-01
2.611331e-01
2.525281e-01
2.820270e-01
2.726807e-01
2.900101e-01
2.820270e-01
3.107950e-01
3.021881e-01
2.820270e-01
2.726807e-01
3.021881e-01
2.921109e-01
3.107950e-01
3.021881e-01
3.307800e-01
3.215589e-01
3.021881e-01
2.921109e-01
3.215589e-01
3.107624e-01
3.307800e-01
3.215589e-01
3.499082e-01
3.400834e-01
3.215589e-01
3.107624e-01
3.400834e-01
3.285795e-01
3.499082e-01
3.400834e-01
3.681235e-01
3.577061e-01
3.400834e-01
3.285795e-01
3.577061e-01
3.455079e-01
3.681235e-01
3.577061e-01
3.853710e-01
3.743729e-01
3.577061e-01
3.455079e-01
3.743729e-01
3.614941e-01
3.853710e-01
3.743729e-01
4.015971e-01
3.900306e-01
3.743729e-01
3.614941e-01
3.900306e-01
3.764858e-01
4.015971e-01
3.900306e-01
4.167490e-01
4.046274e-01
3.900306e-01
3.764858e-01
4.046274e-01
3.904319e-01
4.167490e-01
4.046274e-01
4.307756e-01
4.181126e-01
4.046274e-01
3.904319e-01
4.181126e-01
4.032826e-01
4.307756e-01
4.181126e-01
4.436266e-01
4.304369e-01
4.181126e-01
4.032826e-01
4.304369e-01
4.149893e-01
4.436266e-01
4.304369e-01
4.552536e-01
4.415523e-01
4.304369e-01
4.149893e-01
4.415523e-01
4.255050e-01
4.552536e-01
4.415523e-01
4.656092e-01
4.514123e-01
4.415523e-01
4.255050e-01
4.514123e-01
4.347840e-01
4.656092e-01
4.514123e-01
4.746477e-01
4.599719e-01
4.514123e-01
4.347840e-01
4.599719e-01
4.427824e-01
4.746477e-01
4.599719e-01
4.823249e-01
4.671877e-01
4.599719e-01
4.427824e-01
4.671877e-01
4.494578e-01
4.823249e-01
4.671877e-01
4.885980e-01
4.730180e-01
4.671877e-01
4.494578e-01
4.730180e-01
4.547695e-01
4.885980e-01
4.730180e-01
4.934258e-01
4.774225e-01
4.730180e-01
4.547695e-01
4.774225e-01
4.586789e-01
4.934258e-01
4.774225e-01
4.967689e-01
4.803630e-01
4.774225e-01
4.586789e-01
4.803630e-01
4.611490e-01
4.967689e-01
4.803630e-01
4.985894e-01
4.818027e-01
4.803630e-01
4.611490e-01
4.818027e-01
4.621451e-01
4.985894e-01
4.818027e-01
4.988507e-01
4.817070e-01
4.818027e-01
4.621451e-01
4.817070e-01
4.616347e-01
4.988507e-01
4.817070e-01
4.975184e-01
4.800429e-01
4.817070e-01
4.616347e-01
4.800429e-01
4.595873e-01
4.975184e-01
4.800429e-01
4.945590e-01
4.767794e-01
4.800429e-01
4.595873e-01
4.767794e-01
4.559752e-01
4.945590e-01
4.767794e-01
4.899410e-01
4.718874e-01
4.767794e-01
4.559752e-01
4.718874e-01
4.507734e-01
4.899410e-01
4.718874e-01
4.836340e-01
4.653398e-01
4.718874e-01
4.507734e-01
4.653398e-01
4.439595e-01
4.836340e-01
4.653398e-01
4.756091e-01
4.571113e-01
4.653398e-01
4.439595e-01
4.571113e-01
4.355143e-01
4.756091e-01
4.571113e-01
4.658384e-01
4.471785e-01
4.571113e-01
4.355143e-01
4.471785e-01
4.254223e-01
4.658384e-01
4.471785e-01
4.542955e-01
4.355199e-01
4.471785e-01
4.254223e-01
4.355199e-01
4.136716e-01
4.542955e-01
4.355199e-01
4.409546e-01
4.221155e-01
4.355199e-01
4.136716e-01
4.221155e-01
4.002548e-01
4.409546e-01
4.221155e-01
4.257917e-01
4.069472e-01
4.221155e-01
4.002548e-01
4.069472e-01
3.851699e-01
4.257917e-01
4.069472e-01
4.087857e-01
3.899997e-01
4.069472e-01
3.851699e-01
3.899997e-01
3.684215e-01
4.087857e-01
3.899997e-01
3.899262e-01
3.712673e-01
3.899997e-01
3.684215e-01
3.712673e-01
3.500189e-01
3.899262e-01
3.712673e-01
3.692482e-01
3.507812e-01
3.712673e-01
3.500189e-01
3.507812e-01
3.299590e-01
3.692482e-01
3.507812e-01
3.469379e-01
3.286882e-01
3.507812e-01
3.299590e-01
3.286882e-01
3.079927e-01
3.469379e-01
3.286882e-01
3.242879e-01
3.064709e-01
3.286882e-01
3.079927e-01
3.064709e-01
2.862120e-01
3.242879e-01
3.064709e-01
3.027285e-01
2.856021e-01
3.064709e-01
2.862120e-01
2.856021e-01
2.663709e-01
3.027285e-01
2.856021e-01
2.822945e-01
2.659881e-01
2.856021e-01
2.663709e-01
2.659881e-01
2.478480e-01
2.822945e-01
2.659881e-01
2.628163e-01
2.474323e-01
2.659881e-01
2.478480e-01
2.474323e-01
2.304222e-01
2.628163e-01
2.474323e-01
2.441322e-01
2.297415e-01
2.474323e-01
2.304222e-01
2.297415e-01
2.138907e-01
2.441322e-01
2.297415e-01
2.261003e-01
2.127467e-01
2.297415e-01
2.138907e-01
2.127467e-01
1.980731e-01
2.261003e-01
2.127467e-01
2.085989e-01
1.963041e-01
2.127467e-01
1.980731e-01
1.963041e-01
1.828134e-01
2.085989e-01
1.963041e-01
1.915255e-01
1.802940e-01
1.963041e-01
1.828134e-01
1.802940e-01
1.679800e-01
1.915255e-01
1.802940e-01
1.747943e-01
1.646176e-01
1.802940e-01
1.679800e-01
1.646176e-01
1.534651e-01
1.747943e-01
1.646176e-01
1.583341e-01
1.491953e-01
1.646176e-01
1.534651e-01
1.491953e-01
1.391816e-01
1.583341e-01
1.491953e-01
1.420868e-01
1.339629e-01
1.491953e-01
1.391816e-01
1.339629e-01
1.250613e-01
1.420868e-01
1.339629e-01
1.260049e-01
1.188701e-01
1.339629e-01
1.250613e-01
1.188701e-01
1.110514e-01
1.260049e-01
1.188701e-01
1.100500e-01
1.038776e-01
1.188701e-01
1.110514e-01
1.038776e-01
9.711232e-02
1.100500e-01
1.038776e-01
9.419139e-02
8.895546e-02
1.038776e-01
9.711232e-02
8.895546e-02
8.321536e-02
9.419139e-02
8.895546e-02
7.840471e-02
7.408124e-02
8.895546e-02
8.321536e-02
7.408124e-02
6.934046e-02
7.840471e-02
7.408124e-02
6.267069e-02
5.923861e-02
7.408124e-02
6.934046e-02
5.923861e-02
5.547450e-02
6.267069e-02
5.923861e-02
4.697416e-02
4.441595e-02
5.923861e-02
5.547450e-02
4.441595e-02
4.160978e-02
4.697416e-02
4.441595e-02
3.130311e-02
2.960527e-02
4.441595e-02
4.160978e-02
2.960527e-02
2.774264e-02
3.130311e-02
2.960527e-02
1.564780e-02
1.480119e-02
2.960527e-02
2.774264e-02
1.480119e-02
1.387234e-02
1.564780e-02
1.480119e-02
0.000000e+00
0.000000e+00
1.480119e-02
1.387234e-02
0.000000e+00
0.000000e+00
</DataArray>
<DataArray type="Float32" Name="V4" format="ascii">
8.500000e-01
9.250000e-01
8.500000e-01
9.250000e-01
9.250000e-01
1.000000e+00