<?xml version="1.0"?>
<VTKFile type="UnstructuredGrid" version="0.1" byte_order="LittleEndian" compressor="vtkZLibDataCompressor">
<UnstructuredGrid>
<Piece NumberOfPoints="192" NumberOfCells="48">
<Points>
<DataArray type="Float32" NumberOfComponents="3" format="ascii">
0.000000e+00 7.096730e-01 0.000000e+00
0.000000e+00 8.100000e-01 0.000000e+00
3.107910e-02 7.096860e-01 0.000000e+00
3.103890e-02 8.100000e-01 0.000000e+00
3.107910e-02 7.096860e-01 0.000000e+00
3.103890e-02 8.100000e-01 0.000000e+00
6.215670e-02 7.097260e-01 0.000000e+00
6.207520e-02 8.100000e-01 0.000000e+00
6.215670e-02 7.097260e-01 0.000000e+00
6.207520e-02 8.100000e-01 0.000000e+00
9.323130e-02 7.097920e-01 0.000000e+00
9.310630e-02 8.100000e-01 0.000000e+00
9.323130e-02 7.097920e-01 0.000000e+00
9.310630e-02 8.100000e-01 0.000000e+00
1.243020e-01 7.098870e-01 0.000000e+00
1.241300e-01 8.100000e-01 0.000000e+00
1.243020e-01 7.098870e-01 0.000000e+00
1.241300e-01 8.100000e-01 0.000000e+00
1.553670e-01 7.100110e-01 0.000000e+00
1.551450e-01 8.100000e-01 0.000000e+00
1.553670e-01 7.100110e-01 0.000000e+00
1.551450e-01 8.100000e-01 0.000000e+00
1.864260e-01 7.101700e-01 0.000000e+00
1.861530e-01 8.100000e-01 0.000000e+00
1.864260e-01 7.101700e-01 0.000000e+00
1.861530e-01 8.100000e-01 0.000000e+00
2.174740e-01 7.103710e-01 0.000000e+00
2.171610e-01 8.100000e-01 0.000000e+00
2.174740e-01 7.103710e-01 0.000000e+00
2.171610e-01 8.100000e-01 0.000000e+00
2.485020e-01 7.106250e-01 0.000000e+00
2.481850e-01 8.100000e-01 0.000000e+00
2.485020e-01 7.106250e-01 0.000000e+00
2.481850e-01 8.100000e-01 0.000000e+00
2.794850e-01 7.109450e-01 0.000000e+00
2.792590e-01 8.100000e-01 0.000000e+00
2.794850e-01 7.109450e-01 0.000000e+00
2.792590e-01 8.100000e-01 0.000000e+00
3.103710e-01 7.113400e-01 0.000000e+00
3.104430e-01 8.100000e-01 0.000000e+00
3.103710e-01 7.113400e-01 0.000000e+00
3.104430e-01 8.100000e-01 0.000000e+00
3.410620e-01 7.117890e-01 0.000000e+00
3.418240e-01 8.100000e-01 0.000000e+00
3.410620e-01 7.117890e-01 0.000000e+00
3.418240e-01 8.100000e-01 0.000000e+00
3.713980e-01 7.122020e-01 0.000000e+00
3.735130e-01 8.100000e-01 0.000000e+00
3.713980e-01 7.122020e-01 0.000000e+00
3.735130e-01 8.100000e-01 0.000000e+00
4.011880e-01 7.123220e-01 0.000000e+00
4.056020e-01 8.100000e-01 0.000000e+00
4.011880e-01 7.123220e-01 0.000000e+00
4.056020e-01 8.100000e-01 0.000000e+00
4.304240e-01 7.118070e-01 0.000000e+00
4.380320e-01 8.097180e-01 0.000000e+00
4.304240e-01 7.118070e-01 0.000000e+00
4.380320e-01 8.097180e-01 0.000000e+00
4.590410e-01 7.101940e-01 0.000000e+00
4.706940e-01 8.075410e-01 0.000000e+00
4.590410e-01 7.101940e-01 0.000000e+00
4.706940e-01 8.075410e-01 0.000000e+00
4.869880e-01 7.071610e-01 0.000000e+00
5.035310e-01 8.033970e-01 0.000000e+00
4.869880e-01 7.071610e-01 0.000000e+00
5.035310e-01 8.033970e-01 0.000000e+00
5.143490e-01 7.024550e-01 0.000000e+00
5.363030e-01 7.971850e-01 0.000000e+00
5.143490e-01 7.024550e-01 0.000000e+00
5.363030e-01 7.971850e-01 0.000000e+00
5.411370e-01 6.959790e-01 0.000000e+00
5.687530e-01 7.888100e-01 0.000000e+00
5.411370e-01 6.959790e-01 0.000000e+00
5.687530e-01 7.888100e-01 0.000000e+00
5.673270e-01 6.877070e-01 0.000000e+00
6.006390e-01 7.782660e-01 0.000000e+00
5.673270e-01 6.877070e-01 0.000000e+00
6.006390e-01 7.782660e-01 0.000000e+00
5.928740e-01 6.776590e-01 0.000000e+00
6.317530e-01 7.656120e-01 0.000000e+00
5.928740e-01 6.776590e-01 0.000000e+00
6.317530e-01 7.656120e-01 0.000000e+00
6.177280e-01 6.658870e-01 0.000000e+00
6.619310e-01 7.509590e-01 0.000000e+00
6.177280e-01 6.658870e-01 0.000000e+00
6.619310e-01 7.509590e-01 0.000000e+00
6.418420e-01 6.524700e-01 0.000000e+00
6.910500e-01 7.344490e-01 0.000000e+00
6.418420e-01 6.524700e-01 0.000000e+00
6.910500e-01 7.344490e-01 0.000000e+00
6.651720e-01 6.374990e-01 0.000000e+00
7.190270e-01 7.162360e-01 0.000000e+00
6.651720e-01 6.374990e-01 0.000000e+00
7.190270e-01 7.162360e-01 0.000000e+00
6.876830e-01 6.210770e-01 0.000000e+00
7.458110e-01 6.964770e-01 0.000000e+00
6.876830e-01 6.210770e-01 0.000000e+00
7.458110e-01 6.964770e-01 0.000000e+00
7.093480e-01 6.033080e-01 0.000000e+00
7.713790e-01 6.753230e-01 0.000000e+00
7.093480e-01 6.033080e-01 0.000000e+00
7.713790e-01 6.753230e-01 0.000000e+00
7.301450e-01 5.842970e-01 0.000000e+00
7.957250e-01 6.529150e-01 0.000000e+00
7.301450e-01 5.842970e-01 0.000000e+00
7.957250e-01 6.529150e-01 0.000000e+00
7.500600e-01 5.641440e-01 0.000000e+00
8.188590e-01 6.293800e-01 0.000000e+00
7.500600e-01 5.641440e-01 0.000000e+00
8.188590e-01 6.293800e-01 0.000000e+00
7.690820e-01 5.429470e-01 0.000000e+00
8.407970e-01 6.048320e-01 0.000000e+00
7.690820e-01 5.429470e-01 0.000000e+00
8.407970e-01 6.048320e-01 0.000000e+00
7.872050e-01 5.207950e-01 0.000000e+00
8.615610e-01 5.793710e-01 0.000000e+00
7.872050e-01 5.207950e-01 0.000000e+00
8.615610e-01 5.793710e-01 0.000000e+00
8.044250e-01 4.977720e-01 0.000000e+00
8.811750e-01 5.530840e-01 0.000000e+00
8.044250e-01 4.977720e-01 0.000000e+00
8.811750e-01 5.530840e-01 0.000000e+00
8.207390e-01 4.739550e-01 0.000000e+00
8.996610e-01 5.260480e-01 0.000000e+00
8.207390e-01 4.739550e-01 0.000000e+00
8.996610e-01 5.260480e-01 0.000000e+00
8.361440e-01 4.494150e-01 0.000000e+00
9.170390e-01 4.983320e-01 0.000000e+00
8.361440e-01 4.494150e-01 0.000000e+00
9.170390e-01 4.983320e-01 0.000000e+00
8.506390e-01 4.242170e-01 0.000000e+00
9.333270e-01 4.699940e-01 0.000000e+00
8.506390e-01 4.242170e-01 0.000000e+00
9.333270e-01 4.699940e-01 0.000000e+00
8.642220e-01 3.984200e-01 0.000000e+00
9.485400e-01 4.410890e-01 0.000000e+00
8.642220e-01 3.984200e-01 0.000000e+00
9.485400e-01 4.410890e-01 0.000000e+00
8.768910e-01 3.720800e-01 0.000000e+00
9.626890e-01 4.116660e-01 0.000000e+00
8.768910e-01 3.720800e-01 0.000000e+00
9.626890e-01 4.116660e-01 0.000000e+00
8.886430e-01 3.452470e-01 0.000000e+00
9.757840e-01 3.817700e-01 0.000000e+00
8.886430e-01 3.452470e-01 0.000000e+00
9.757840e-01 3.817700e-01 0.000000e+00
8.994750e-01 3.179690e-01 0.000000e+00
9.878300e-01 3.514420e-01 0.000000e+00
8.994750e-01 3.179690e-01 0.000000e+00
9.878300e-01 3.514420e-01 0.000000e+00
9.093820e-01 2.902900e-01 0.000000e+00
9.988310e-01 3.207230e-01 0.000000e+00
9.093820e-01 2.902900e-01 0.000000e+00
9.988310e-01 3.207230e-01 0.000000e+00
9.183630e-01 2.622530e-01 0.000000e+00
1.008790e+00 2.896490e-01 0.000000e+00
9.183630e-01 2.622530e-01 0.000000e+00
1.008790e+00 2.896490e-01 0.000000e+00
9.264120e-01 2.338970e-01 0.000000e+00
1.017710e+00 2.582600e-01 0.000000e+00
9.264120e-01 2.338970e-01 0.000000e+00
1.017710e+00 2.582600e-01 0.000000e+00
9.335250e-01 2.052620e-01 0.000000e+00
1.025580e+00 2.265890e-01 0.000000e+00
9.335250e-01 2.052620e-01 0.000000e+00
1.025580e+00 2.265890e-01 0.000000e+00
9.397000e-01 1.763830e-01 0.000000e+00
1.032410e+00 1.946740e-01 0.000000e+00
9.397000e-01 1.763830e-01 0.000000e+00
1.032410e+00 1.946740e-01 0.000000e+00
9.449310e-01 1.472990e-01 0.000000e+00
1.038190e+00 1.625480e-01 0.000000e+00
9.449310e-01 1.472990e-01 0.000000e+00
1.038190e+00 1.625480e-01 0.000000e+00
9.492160e-01 1.180430e-01 0.000000e+00
1.042930e+00 1.302480e-01 0.000000e+00
9.492160e-01 1.180430e-01 0.000000e+00
1.042930e+00 1.302480e-01 0.000000e+00
9.525520e-01 8.865080e-02 0.000000e+00
1.046610e+00 9.780870e-02 0.000000e+00
9.525520e-01 8.865080e-02 0.000000e+00
1.046610e+00 9.780870e-02 0.000000e+00
9.549360e-01 5.915690e-02 0.000000e+00
1.049240e+00 6.526400e-02 0.000000e+00
9.549360e-01 5.915690e-02 0.000000e+00
1.049240e+00 6.526400e-02 0.000000e+00
9.563680e-01 2.959540e-02 0.000000e+00
1.050830e+00 3.264950e-02 0.000000e+00
9.563680e-01 2.959540e-02 0.000000e+00
1.050830e+00 3.264950e-02 0.000000e+00
9.568450e-01 4.685280e-12 0.000000e+00
1.051350e+00 5.148040e-12 0.000000e+00
</DataArray>
</Points>
<Cells>
<DataArray type="Int32" Name="connectivity" format="ascii">
0 1 3 2
4 5 7 6
8 9 11 10
12 13 15 14
16 17 19 18
20 21 23 22
24 25 27 26
28 29 31 30
32 33 35 34
36 37 39 38
40 41 43 42
44 45 47 46
48 49 51 50
52 53 55 54
56 57 59 58
60 61 63 62
64 65 67 66
68 69 71 70
72 73 75 74
76 77 79 78
80 81 83 82
84 85 87 86
88 89 91 90
92 93 95 94
96 97 99 98
100 101 103 102
104 105 107 106
108 109 111 110
112 113 115 114
116 117 119 118
120 121 123 122
124 125 127 126
128 129 131 130
132 133 135 134
136 137 139 138
140 141 143 142
144 145 147 146
148 149 151 150
152 153 155 154
156 157 159 158
160 161 163 162
164 165 167 166
168 169 171 170
172 173 175 174
176 177 179 178
180 181 183 182
184 185 187 186
188 189 191 190
</DataArray>
<DataArray type="Int32" Name="offsets" format="ascii">
4
8
12
16
20
24
28
32
36
40
44
48
52
56
60
64
68
72
76
80
84
88
92
96
100
104
108
112
116
120
124
128
132
136
140
144
148
152
156
160
164
168
172
176
180
184
188
192
</DataArray>
<DataArray type="UInt8" Name="types" format="ascii">
9
9
9
9
9
9
9
9
9
9
9
9
9
9
9
9
9
9
9
9
9
9
9
9
9
9
9
9
9
9
9
9
9
9
9
9
9
9
9
9
9
9
9
9
9
9
9
9
</DataArray>
</Cells>
<PointData>
<DataArray type="Float32" Name="V1" format="ascii">
8.566330e-01
-1.199450e+00
8.581780e-01
-1.197900e+00
8.585100e-01
-1.197790e+00
8.621120e-01
-1.194190e+00
8.626930e-01
-1.194260e+00
8.689770e-01
-1.187980e+00
8.698060e-01
-1.188430e+00
8.786140e-01
-1.179620e+00
8.799100e-01
-1.180570e+00
8.909950e-01
-1.169490e+00
8.929290e-01
-1.171060e+00
9.058250e-01
-1.158160e+00
9.083280e-01
-1.160240e+00
9.222140e-01
-1.146360e+00
9.244760e-01
-1.148150e+00
9.380510e-01
-1.134580e+00
9.374810e-01
-1.133640e+00
9.490440e-01
-1.122070e+00
9.393250e-01
-1.112510e+00
9.474830e-01
-1.104360e+00
9.154290e-01
-1.074070e+00
9.214400e-01
-1.068060e+00
8.430220e-01
-9.953290e-01
8.566150e-01
-9.817360e-01
6.945200e-01
-8.331860e-01
7.450090e-01
-7.826980e-01
4.543480e-01
-4.941290e-01
5.580630e-01
-3.904140e-01
2.668080e-01
-1.084800e-01
3.181500e-01
-5.713760e-02
1.252440e-01
1.163360e-01
1.593500e-01
1.504420e-01
1.793300e-02
2.813200e-01
5.258410e-02
3.159710e-01
-4.724950e-02
4.085470e-01
-1.191980e-02
4.438770e-01
-7.699520e-02
5.040930e-01
-4.241890e-02
5.386700e-01
-7.911090e-02
5.725550e-01
-4.641220e-02
6.052530e-01
-6.070020e-02
6.184200e-01
-3.063570e-02
6.484850e-01
-2.795730e-02
6.459830e-01
-9.771070e-04
6.729630e-01
1.390760e-02
6.591840e-01
3.760610e-02
6.828830e-01
6.068860e-02
6.615170e-01
8.110650e-02
6.819350e-01
1.091390e-01
6.559750e-01
1.264210e-01
6.732570e-01
1.568700e-01
6.450360e-01
1.712570e-01
6.594230e-01
2.022300e-01
6.306920e-01
2.140140e-01
6.424760e-01
2.441590e-01
6.144900e-01
2.536560e-01
6.239870e-01
2.820680e-01
5.975890e-01
2.895930e-01
6.051130e-01
3.157150e-01
5.808250e-01
3.215670e-01
5.866770e-01
3.451100e-01
5.647720e-01
3.495660e-01
5.692290e-01
3.704360e-01
5.498000e-01
3.737430e-01
5.531070e-01
3.919830e-01
5.361180e-01
3.943590e-01
5.384930e-01
4.101040e-01
5.238210e-01
4.117360e-01
5.254530e-01
4.251770e-01
5.129220e-01
4.262250e-01
5.139700e-01
4.375840e-01
5.033780e-01
4.381810e-01
5.039750e-01
4.476890e-01
4.951070e-01
4.479490e-01
4.953670e-01
4.558350e-01
4.880100e-01
4.558500e-01
4.880250e-01
4.623310e-01
4.819770e-01
4.621760e-01
4.818220e-01
4.674530e-01
4.768960e-01
4.671890e-01
4.766320e-01
4.714430e-01
4.726620e-01
4.711200e-01
4.723380e-01
4.745090e-01
4.691750e-01
4.741640e-01
4.688300e-01
4.768250e-01
4.663460e-01
4.764900e-01
4.660100e-01
4.785380e-01
4.640980e-01
4.782360e-01
4.637960e-01
4.797650e-01
4.623690e-01
4.795130e-01
4.621170e-01
4.805970e-01
4.611050e-01
4.804080e-01
4.609170e-01
4.811010e-01
4.602700e-01
4.809850e-01
4.601540e-01
4.813220e-01
4.598390e-01
4.812830e-01
4.598000e-01
</DataArray>
<DataArray type="Float32" Name="V2" format="ascii">
7.096730e-01
8.100000e-01
7.103230e-01
8.105820e-01
7.103230e-01
8.105820e-01
7.122720e-01
8.123260e-01
7.122720e-01
8.123260e-01
7.155130e-01
8.152260e-01
7.155130e-01
8.152260e-01
7.200380e-01
8.192730e-01
7.200380e-01
8.192730e-01
7.258370e-01
8.244540e-01
7.258370e-01
8.244540e-01
7.328950e-01
8.307530e-01
7.328950e-01
8.307530e-01
7.411980e-01
8.381520e-01
7.411980e-01
8.381520e-01
7.507280e-01
8.466350e-01
7.507280e-01
8.466350e-01
7.614630e-01
8.561860e-01
7.614630e-01
8.561860e-01
7.733540e-01
8.668020e-01
7.733540e-01
8.668020e-01
7.863070e-01
8.784910e-01
7.863070e-01
8.784910e-01
8.001170e-01
8.912800e-01
8.001170e-01
8.912800e-01
8.144010e-01
9.051950e-01
8.144010e-01
9.051950e-01
8.287720e-01
9.199510e-01
8.287720e-01
9.199510e-01
8.427260e-01
9.340710e-01
8.427260e-01
9.340710e-01
8.559140e-01
9.475280e-01
8.559140e-01
9.475280e-01
8.681380e-01
9.601760e-01
8.681380e-01
9.601760e-01
8.793250e-01
9.718540e-01
8.793250e-01
9.718540e-01
8.894560e-01
9.824690e-01
8.894560e-01
9.824690e-01
8.985420e-01
9.919870e-01
8.985420e-01
9.919870e-01
9.066210e-01
1.000420e+00
9.066210e-01
1.000420e+00
9.137490e-01
1.007830e+00
9.137490e-01
1.007830e+00
9.199940e-01
1.014280e+00
9.199940e-01
1.014280e+00
9.254330e-01
1.019850e+00
9.254330e-01
1.019850e+00
9.301440e-01
1.024650e+00
9.301440e-01
1.024650e+00
9.342060e-01
1.028750e+00
9.342060e-01
1.028750e+00
9.376930e-01
1.032260e+00
9.376930e-01
1.032260e+00
9.406790e-01
1.035250e+00
9.406790e-01
1.035250e+00
9.432290e-01
1.037790e+00
9.432290e-01
1.037790e+00
9.454020e-01
1.039950e+00
9.454020e-01
1.039950e+00
9.472540e-01
1.041780e+00
9.472540e-01
1.041780e+00
9.488300e-01
1.043340e+00
9.488300e-01
1.043340e+00
9.501710e-01
1.044670e+00
9.501710e-01
1.044670e+00
9.513140e-01
1.045810e+00
9.513140e-01
1.045810e+00
9.522890e-01
1.046780e+00
9.522890e-01
1.046780e+00
9.531190e-01
1.047600e+00
9.531190e-01
1.047600e+00
9.538280e-01
1.048310e+00
9.538280e-01
1.048310e+00
9.544320e-01
1.048920e+00
9.544320e-01
1.048920e+00
9.549470e-01
1.049430e+00
9.549470e-01
1.049430e+00
9.553820e-01
1.049870e+00
9.553820e-01
1.049870e+00
9.557490e-01
1.050240e+00
9.557490e-01
1.050240e+00
9.560540e-01
1.050550e+00
9.560540e-01
1.050550e+00
9.563040e-01
1.050800e+00
9.563040e-01
1.050800e+00
9.565030e-01
1.051000e+00
9.565030e-01
1.051000e+00
9.566540e-01
1.051160e+00
9.566540e-01
1.051160e+00
9.567610e-01
1.051270e+00
9.567610e-01
1.051270e+00
9.568240e-01
1.051330e+00
9.568240e-01
1.051330e+00
9.568450e-01
1.051350e+00
</DataArray>
<DataArray type="Float32" Name="V3" format="ascii">
0.000000e+00
0.000000e+00
7.842190e-03
4.519840e-03
7.842190e-03
4.519840e-03
1.560530e-02
8.965740e-03
1.560530e-02
8.965740e-03
2.321060e-02
1.326410e-02
2.321060e-02
1.326410e-02
3.057960e-02
1.734180e-02
3.057960e-02
1.734180e-02
3.763450e-02
2.112760e-02
3.763450e-02
2.112760e-02
4.429660e-02
2.455320e-02
4.429660e-02
2.455320e-02
5.048480e-02
2.755620e-02
5.048480e-02
2.755620e-02
5.611130e-02
3.008480e-02
5.611130e-02
3.008480e-02
6.107390e-02
3.210390e-02
6.107390e-02
3.210390e-02
6.524700e-02
3.360170e-02
6.524700e-02
3.360170e-02
6.847380e-02
3.459280e-02
6.847380e-02
3.459280e-02
7.057940e-02
3.510780e-02
7.057940e-02
3.510780e-02
7.144690e-02
3.515590e-02
7.144690e-02
3.515590e-02
7.121090e-02
3.472950e-02
7.121090e-02
3.472950e-02
7.005460e-02
3.444320e-02
7.005460e-02
3.444320e-02
6.816350e-02
3.437190e-02
6.816350e-02
3.437190e-02
6.584250e-02
3.446240e-02
6.584250e-02
3.446240e-02
6.327410e-02
3.466160e-02
6.327410e-02
3.466160e-02
6.057590e-02
3.490500e-02
6.057590e-02
3.490500e-02
5.782600e-02
3.512850e-02
5.782600e-02
3.512850e-02
5.507600e-02
3.527590e-02
5.507600e-02
3.527590e-02
5.235900e-02
3.530290e-02
5.235900e-02
3.530290e-02
4.969560e-02
3.517850e-02
4.969560e-02
3.517850e-02
4.709780e-02
3.488470e-02
4.709780e-02
3.488470e-02
4.457200e-02
3.441470e-02
4.457200e-02
3.441470e-02
4.212070e-02
3.377050e-02
4.212070e-02
3.377050e-02
3.974360e-02
3.296090e-02
3.974360e-02
3.296090e-02
3.743880e-02
3.199910e-02
3.743880e-02
3.199910e-02
3.520310e-02
3.090060e-02
3.520310e-02
3.090060e-02
3.303230e-02
2.968230e-02
3.303230e-02
2.968230e-02
3.092190e-02
2.836070e-02
3.092190e-02
2.836070e-02
2.886700e-02
2.695160e-02
2.886700e-02
2.695160e-02
2.686250e-02
2.546950e-02
2.686250e-02
2.546950e-02
2.490350e-02
2.392740e-02
2.490350e-02
2.392740e-02
2.298490e-02
2.233660e-02
2.298490e-02
2.233660e-02
2.110220e-02
2.070680e-02
2.110220e-02
2.070680e-02
1.925080e-02
1.904630e-02
1.925080e-02
1.904630e-02
1.742680e-02
1.736170e-02
1.742680e-02
1.736170e-02
1.562610e-02
1.565870e-02
1.562610e-02
1.565870e-02
1.384550e-02
1.394180e-02
1.384550e-02
1.394180e-02
1.208180e-02
1.221450e-02
1.208180e-02
1.221450e-02
1.033200e-02
1.047960e-02
1.033200e-02
1.047960e-02
8.593730e-03
8.739160e-03
8.593730e-03
8.739160e-03
6.864580e-03
6.994930e-03
6.864580e-03
6.994930e-03
5.142500e-03
5.248100e-03
5.142500e-03
5.248100e-03
3.425550e-03
3.499560e-03
3.425550e-03
3.499560e-03
1.711950e-03
1.750020e-03
1.711950e-03
1.750020e-03
0.000000e+00
0.000000e+00
</DataArray>
<DataArray type="Float32" Name="V4" format="ascii">
9.000000e-01
1.000000e+00
9.000000e-01
1.000000e+00
9.000000e-01
1.000000e+00
9.000000e-01
1.000000e+00
9.000000e-01
1.000000e+00
9.000000e-01
1.000000e+00
9.000000e-01
1.000000e+00
9.000000e-01
1.000000e+00
9.000000e-01
1.000000e+00
9.000000e-01
1.000000e+00
9.000000e-01
1.000000e+00
9.000000e-01
1.000000e+00
9.000000e-01
1.000000e+00
9.000000e-01
1.000000e+00
9.000000e-01
1.000000e+00
9.000000e-01
1.000000e+00
9.000000e-01
1.000000e+00
9.000000e-01
1.000000e+00
9.000000e-01
1.000000e+00
9.000000e-01
1.000000e+00
9.000000e-01
1.000000e+00
9.000000e-01
1.000000e+00
9.000000e-01
1.000000e+00
9.000000e-01
1.000000e+00
9.000000e-01
1.000000e+00
9.000000e-01
1.000000e+00
9.000000e-01
1.000000e+00
9.000000e-01
1.000000e+00
9.000000e-01
1.000000e+00
9.000000e-01
1.000000e+00
9.000000e-01
1.000000e+00
9.000000e-01
1.000000e+00
9.000000e-01
1.000000e+00
9.000000e-01
1.000000e+00
9.000000e-01
1.000000e+00
9.000000e-01
1.000000e+00
9.000000e-01
1.000000e+00
9.000000e-01
1.000000e+00
9.000000e-01
1.000000e+00
9.000000e-01
1.000000e+00
9.000000e-01
1.000000e+00
9.000000e-01
1.000000e+00
9.000000e-01
1.000000e+00
9.000000e-01
1.000000e+00
9.000000e-01
1.000000e+00
9.000000e-01
1.000000e+00
9.000000e-01
1.000000e+00
9.000000e-01
1.000000e+00
9.000000e-01
1.000000e+00
9.000000e-01
1.000000e+00
9.000000e-01
1.000000e+00
9.000000e-01
1.000000e+00
9.000000e-01
1.000000e+00
9.000000e-01
1.000000e+00
9.000000e-01
1.000000e+00
9.000000e-01
1.000000e+00
9.000000e-01
1.000000e+00
9.000000e-01
1.000000e+00
9.000000e-01
1.000000e+00
9.000000e-01
1.000000e+00
9.000000e-01
1.000000e+00
9.000000e-01
1.000000e+00
9.000000e-01
1.000000e+00
9.000000e-01
1.000000e+00
9.000000e-01
1.000000e+00
9.000000e-01
1.000000e+00
9.000000e-01
1.000000e+00
9.000000e-01
1.000000e+00
9.000000e-01
1.000000e+00
9.000000e-01
1.000000e+00
9.000000e-01
1.000000e+00
9.000000e-01
1.000000e+00
9.000000e-01
1.000000e+00
9.000000e-01
1.000000e+00
9.000000e-01
1.000000e+00
9.000000e-01
1.000000e+00
9.000000e-01
1.000000e+00
9.000000e-01
1.000000e+00
9.000000e-01
1.000000e+00
9.000000e-01
1.000000e+00
9.000000e-01
1.000000e+00
9.000000e-01
1.000000e+00
9.000000e-01
1.000000e+00
9.000000e-01
1.000000e+00
9.000000e-01
1.000000e+00
9.000000e-01
1.000000e+00
9.000000e-01
1.000000e+00
9.000000e-01
1.000000e+00
9.000000e-01
1.000000e+00
9.000000e-01
1.000000e+00
9.000000e-01
1.000000e+00
9.000000e-01
1.000000e+00
9.000000e-01
1.000000e+00
9.000000e-01
1.000000e+00
9.000000e-01
1.000000e+00
9.000000e-01
1.000000e+00
</DataArray>
<DataArray type="Float32" Name="V5" format="ascii">
0.000000e+00
0.000000e+00
3.272490e-02
3.272490e-02
3.272490e-02
3.272490e-02
6.544980e-02
6.544980e-02
6.544980e-02
6.544980e-02
9.817480e-02
9.817480e-02
9.817480e-02
9.817480e-02
1.309000e-01
1.309000e-01
1.309000e-01
1.309000e-01
1.636250e-01
1.636250e-01
1.636250e-01
1.636250e-01
1.963500e-01
1.963500e-01
1.963500e-01
1.963500e-01
2.290740e-01
2.290740e-01
2.290740e-01
2.290740e-01
2.617990e-01
2.617990e-01
2.617990e-01
2.617990e-01
2.945240e-01
2.945240e-01
2.945240e-01
2.945240e-01
3.272490e-01
3.272490e-01
3.272490e-01
3.272490e-01
3.599740e-01
3.599740e-01
3.599740e-01
3.599740e-01
3.926990e-01
3.926990e-01
3.926990e-01
3.926990e-01
4.254240e-01
4.254240e-01
4.254240e-01
4.254240e-01
4.581490e-01
4.581490e-01
4.581490e-01
4.581490e-01
4.908740e-01
4.908740e-01
4.908740e-01
4.908740e-01
5.235990e-01
5.235990e-01
5.235990e-01
5.235990e-01
5.563240e-01
5.563240e-01
5.563240e-01
5.563240e-01
5.890490e-01
5.890490e-01
5.890490e-01
5.890490e-01
6.217740e-01
6.217740e-01
6.217740e-01
6.217740e-01
6.544980e-01
6.544980e-01
6.544980e-01
6.544980e-01
6.872230e-01
6.872230e-01
6.872230e-01
6.872230e-01
7.199480e-01
7.199480e-01
7.199480e-01
7.199480e-01
7.526730e-01
7.526730e-01
7.526730e-01
7.526730e-01
7.853980e-01
7.853980e-01
7.853980e-01
7.853980e-01
8.181230e-01
8.181230e-01
8.181230e-01
8.181230e-01
8.508480e-01
8.508480e-01
8.508480e-01
8.508480e-01
8.835730e-01
8.835730e-01
8.835730e-01
8.835730e-01
9.162980e-01
9.162980e-01
9.162980e-01
9.162980e-01
9.490230e-01
9.490230e-01
9.490230e-01
9.490230e-01
9.817480e-01
9.817480e-01
9.817480e-01
9.817480e-01
1.014470e+00
1.014470e+00
1.014470e+00
1.014470e+00
1.047200e+00
1.047200e+00
1.047200e+00
1.047200e+00
1.079920e+00
1.079920e+00
1.079920e+00
1.079920e+00
1.112650e+00
1.112650e+00
1.112650e+00
1.112650e+00
1.145370e+00
1.145370e+00
1.145370e+00
1.145370e+00
1.178100e+00
1.178100e+00
1.178100e+00
1.178100e+00
1.210820e+00
1.210820e+00
1.210820e+00
1.210820e+00
1.243550e+00
1.243550e+00
1.243550e+00
1.243550e+00
1.276270e+00
1.276270e+00
1.276270e+00
1.276270e+00
1.309000e+00
1.309000e+00
1.309000e+00
1.309000e+00
1.341720e+00
1.341720e+00
1.341720e+00
1.341720e+00
1.374450e+00
1.374450e+00
1.374450e+00
1.374450e+00
1.407170e+00
1.407170e+00
1.407170e+00
1.407170e+00
1.439900e+00
1.439900e+00
1.439900e+00
1.439900e+00
1.472620e+00
1.472620e+00
1.472620e+00
1.472620e+00
1.505350e+00
1.505350e+00
1.505350e+00
1.505350e+00
1.538070e+00
1.538070e+00
1.538070e+00
1.538070e+00
1.570800e+00
1.570800e+00
</DataArray>
</PointData>
</Piece></UnstructuredGrid>
</VTKFile>
