<?xml version="1.0"?>
<VTKFile type="UnstructuredGrid" version="0.1" byte_order="LittleEndian" compressor="vtkZLibDataCompressor">
<UnstructuredGrid>
<Piece NumberOfPoints="192" NumberOfCells="48">
<Points>
<DataArray type="Float32" NumberOfComponents="3" format="ascii">
0.000000e+00 4.291660e-01 0.000000e+00
0.000000e+00 4.900000e-01 0.000000e+00
3.988820e-02 4.291770e-01 0.000000e+00
3.987250e-02 4.900000e-01 0.000000e+00
3.988820e-02 4.291770e-01 0.000000e+00
3.987250e-02 4.900000e-01 0.000000e+00
7.977630e-02 4.292090e-01 0.000000e+00
7.974470e-02 4.900000e-01 0.000000e+00
7.977630e-02 4.292090e-01 0.000000e+00
7.974470e-02 4.900000e-01 0.000000e+00
1.196640e-01 4.292620e-01 0.000000e+00
1.196170e-01 4.900000e-01 0.000000e+00
1.196640e-01 4.292620e-01 0.000000e+00
1.196170e-01 4.900000e-01 0.000000e+00
1.595510e-01 4.293360e-01 0.000000e+00
1.594880e-01 4.900000e-01 0.000000e+00
1.595510e-01 4.293360e-01 0.000000e+00
1.594880e-01 4.900000e-01 0.000000e+00
1.994370e-01 4.294320e-01 0.000000e+00
1.993590e-01 4.900000e-01 0.000000e+00
1.994370e-01 4.294320e-01 0.000000e+00
1.993590e-01 4.900000e-01 0.000000e+00
2.393220e-01 4.295480e-01 0.000000e+00
2.392280e-01 4.900000e-01 0.000000e+00
2.393220e-01 4.295480e-01 0.000000e+00
2.392280e-01 4.900000e-01 0.000000e+00
2.792040e-01 4.296860e-01 0.000000e+00
2.790950e-01 4.900000e-01 0.000000e+00
2.792040e-01 4.296860e-01 0.000000e+00
2.790950e-01 4.900000e-01 0.000000e+00
3.190860e-01 4.298440e-01 0.000000e+00
3.189610e-01 4.900000e-01 0.000000e+00
3.190860e-01 4.298440e-01 0.000000e+00
3.189610e-01 4.900000e-01 0.000000e+00
3.589650e-01 4.300230e-01 0.000000e+00
3.588250e-01 4.900000e-01 0.000000e+00
3.589650e-01 4.300230e-01 0.000000e+00
3.588250e-01 4.900000e-01 0.000000e+00
3.988420e-01 4.302230e-01 0.000000e+00
3.986870e-01 4.900000e-01 0.000000e+00
3.988420e-01 4.302230e-01 0.000000e+00
3.986870e-01 4.900000e-01 0.000000e+00
4.387160e-01 4.304430e-01 0.000000e+00
4.385470e-01 4.900000e-01 0.000000e+00
4.387160e-01 4.304430e-01 0.000000e+00
4.385470e-01 4.900000e-01 0.000000e+00
4.785860e-01 4.306830e-01 0.000000e+00
4.784030e-01 4.900000e-01 0.000000e+00
4.785860e-01 4.306830e-01 0.000000e+00
4.784030e-01 4.900000e-01 0.000000e+00
5.184530e-01 4.309420e-01 0.000000e+00
5.182560e-01 4.900000e-01 0.000000e+00
5.184530e-01 4.309420e-01 0.000000e+00
5.182560e-01 4.900000e-01 0.000000e+00
5.583160e-01 4.312220e-01 0.000000e+00
5.581040e-01 4.900000e-01 0.000000e+00
5.583160e-01 4.312220e-01 0.000000e+00
5.581040e-01 4.900000e-01 0.000000e+00
5.981730e-01 4.315210e-01 0.000000e+00
5.979480e-01 4.900000e-01 0.000000e+00
5.981730e-01 4.315210e-01 0.000000e+00
5.979480e-01 4.900000e-01 0.000000e+00
6.380250e-01 4.318380e-01 0.000000e+00
6.377870e-01 4.900000e-01 0.000000e+00
6.380250e-01 4.318380e-01 0.000000e+00
6.377870e-01 4.900000e-01 0.000000e+00
6.778710e-01 4.321750e-01 0.000000e+00
6.776200e-01 4.900000e-01 0.000000e+00
6.778710e-01 4.321750e-01 0.000000e+00
6.776200e-01 4.900000e-01 0.000000e+00
7.177090e-01 4.325300e-01 0.000000e+00
7.174460e-01 4.900000e-01 0.000000e+00
7.177090e-01 4.325300e-01 0.000000e+00
7.174460e-01 4.900000e-01 0.000000e+00
7.575400e-01 4.329030e-01 0.000000e+00
7.572640e-01 4.900000e-01 0.000000e+00
7.575400e-01 4.329030e-01 0.000000e+00
7.572640e-01 4.900000e-01 0.000000e+00
7.973600e-01 4.332940e-01 0.000000e+00
7.970730e-01 4.900000e-01 0.000000e+00
7.973600e-01 4.332940e-01 0.000000e+00
7.970730e-01 4.900000e-01 0.000000e+00
8.371710e-01 4.337020e-01 0.000000e+00
8.368720e-01 4.900000e-01 0.000000e+00
8.371710e-01 4.337020e-01 0.000000e+00
8.368720e-01 4.900000e-01 0.000000e+00
8.769710e-01 4.341280e-01 0.000000e+00
8.766620e-01 4.900000e-01 0.000000e+00
8.769710e-01 4.341280e-01 0.000000e+00
8.766620e-01 4.900000e-01 0.000000e+00
9.167580e-01 4.345700e-01 0.000000e+00
9.164410e-01 4.900000e-01 0.000000e+00
9.167580e-01 4.345700e-01 0.000000e+00
9.164410e-01 4.900000e-01 0.000000e+00
9.565290e-01 4.350310e-01 0.000000e+00
9.562110e-01 4.900000e-01 0.000000e+00
9.565290e-01 4.350310e-01 0.000000e+00
9.562110e-01 4.900000e-01 0.000000e+00
9.962760e-01 4.355120e-01 0.000000e+00
9.959830e-01 4.900000e-01 0.000000e+00
9.962760e-01 4.355120e-01 0.000000e+00
9.959830e-01 4.900000e-01 0.000000e+00
1.035980e+00 4.360170e-01 0.000000e+00
1.035780e+00 4.900000e-01 0.000000e+00
1.035980e+00 4.360170e-01 0.000000e+00
1.035780e+00 4.900000e-01 0.000000e+00
1.075580e+00 4.365440e-01 0.000000e+00
1.075670e+00 4.900000e-01 0.000000e+00
1.075580e+00 4.365440e-01 0.000000e+00
1.075670e+00 4.900000e-01 0.000000e+00
1.114930e+00 4.370610e-01 0.000000e+00
1.115780e+00 4.900000e-01 0.000000e+00
1.114930e+00 4.370610e-01 0.000000e+00
1.115780e+00 4.900000e-01 0.000000e+00
1.153700e+00 4.374010e-01 0.000000e+00
1.156230e+00 4.900000e-01 0.000000e+00
1.153700e+00 4.374010e-01 0.000000e+00
1.156230e+00 4.900000e-01 0.000000e+00
1.191430e+00 4.369780e-01 0.000000e+00
1.196840e+00 4.900000e-01 0.000000e+00
1.191430e+00 4.369780e-01 0.000000e+00
1.196840e+00 4.900000e-01 0.000000e+00
1.228140e+00 4.344500e-01 0.000000e+00
1.236540e+00 4.875350e-01 0.000000e+00
1.228140e+00 4.344500e-01 0.000000e+00
1.236540e+00 4.875350e-01 0.000000e+00
1.263520e+00 4.286750e-01 0.000000e+00
1.275940e+00 4.803700e-01 0.000000e+00
1.263520e+00 4.286750e-01 0.000000e+00
1.275940e+00 4.803700e-01 0.000000e+00
1.297810e+00 4.194150e-01 0.000000e+00
1.314690e+00 4.692360e-01 0.000000e+00
1.297810e+00 4.194150e-01 0.000000e+00
1.314690e+00 4.692360e-01 0.000000e+00
1.330940e+00 4.067680e-01 0.000000e+00
1.352220e+00 4.542870e-01 0.000000e+00
1.330940e+00 4.067680e-01 0.000000e+00
1.352220e+00 4.542870e-01 0.000000e+00
1.362700e+00 3.909240e-01 0.000000e+00
1.388110e+00 4.357940e-01 0.000000e+00
1.362700e+00 3.909240e-01 0.000000e+00
1.388110e+00 4.357940e-01 0.000000e+00
1.392900e+00 3.720910e-01 0.000000e+00
1.422060e+00 4.140450e-01 0.000000e+00
1.392900e+00 3.720910e-01 0.000000e+00
1.422060e+00 4.140450e-01 0.000000e+00
1.421320e+00 3.505170e-01 0.000000e+00
1.453830e+00 3.893540e-01 0.000000e+00
1.421320e+00 3.505170e-01 0.000000e+00
1.453830e+00 3.893540e-01 0.000000e+00
1.447780e+00 3.264320e-01 0.000000e+00
1.483270e+00 3.620020e-01 0.000000e+00
1.447780e+00 3.264320e-01 0.000000e+00
1.483270e+00 3.620020e-01 0.000000e+00
1.472120e+00 3.000940e-01 0.000000e+00
1.510230e+00 3.322900e-01 0.000000e+00
1.472120e+00 3.000940e-01 0.000000e+00
1.510230e+00 3.322900e-01 0.000000e+00
1.494210e+00 2.717300e-01 0.000000e+00
1.534590e+00 3.004700e-01 0.000000e+00
1.494210e+00 2.717300e-01 0.000000e+00
1.534590e+00 3.004700e-01 0.000000e+00
1.513930e+00 2.415960e-01 0.000000e+00
1.556270e+00 2.668250e-01 0.000000e+00
1.513930e+00 2.415960e-01 0.000000e+00
1.556270e+00 2.668250e-01 0.000000e+00
1.531200e+00 2.099070e-01 0.000000e+00
1.575190e+00 2.315840e-01 0.000000e+00
1.531200e+00 2.099070e-01 0.000000e+00
1.575190e+00 2.315840e-01 0.000000e+00
1.545930e+00 1.769140e-01 0.000000e+00
1.591280e+00 1.950100e-01 0.000000e+00
1.545930e+00 1.769140e-01 0.000000e+00
1.591280e+00 1.950100e-01 0.000000e+00
1.558070e+00 1.428230e-01 0.000000e+00
1.604520e+00 1.573170e-01 0.000000e+00
1.558070e+00 1.428230e-01 0.000000e+00
1.604520e+00 1.573170e-01 0.000000e+00
1.567550e+00 1.078750e-01 0.000000e+00
1.614850e+00 1.187560e-01 0.000000e+00
1.567550e+00 1.078750e-01 0.000000e+00
1.614850e+00 1.187560e-01 0.000000e+00
1.574350e+00 7.226940e-02 0.000000e+00
1.622240e+00 7.952690e-02 0.000000e+00
1.574350e+00 7.226940e-02 0.000000e+00
1.622240e+00 7.952690e-02 0.000000e+00
1.578450e+00 3.624470e-02 0.000000e+00
1.626690e+00 3.987500e-02 0.000000e+00
1.578450e+00 3.624470e-02 0.000000e+00
1.626690e+00 3.987500e-02 0.000000e+00
1.579810e+00 -5.802970e-06 0.000000e+00
1.628170e+00 -5.980610e-06 0.000000e+00
</DataArray>
</Points>
<Cells>
<DataArray type="Int32" Name="connectivity" format="ascii">
0 1 3 2
4 5 7 6
8 9 11 10
12 13 15 14
16 17 19 18
20 21 23 22
24 25 27 26
28 29 31 30
32 33 35 34
36 37 39 38
40 41 43 42
44 45 47 46
48 49 51 50
52 53 55 54
56 57 59 58
60 61 63 62
64 65 67 66
68 69 71 70
72 73 75 74
76 77 79 78
80 81 83 82
84 85 87 86
88 89 91 90
92 93 95 94
96 97 99 98
100 101 103 102
104 105 107 106
108 109 111 110
112 113 115 114
116 117 119 118
120 121 123 122
124 125 127 126
128 129 131 130
132 133 135 134
136 137 139 138
140 141 143 142
144 145 147 146
148 149 151 150
152 153 155 154
156 157 159 158
160 161 163 162
164 165 167 166
168 169 171 170
172 173 175 174
176 177 179 178
180 181 183 182
184 185 187 186
188 189 191 190
</DataArray>
<DataArray type="Int32" Name="offsets" format="ascii">
4
8
12
16
20
24
28
32
36
40
44
48
52
56
60
64
68
72
76
80
84
88
92
96
100
104
108
112
116
120
124
128
132
136
140
144
148
152
156
160
164
168
172
176
180
184
188
192
</DataArray>
<DataArray type="UInt8" Name="types" format="ascii">
9
9
9
9
9
9
9
9
9
9
9
9
9
9
9
9
9
9
9
9
9
9
9
9
9
9
9
9
9
9
9
9
9
9
9
9
9
9
9
9
9
9
9
9
9
9
9
9
</DataArray>
</Cells>
<PointData>
<DataArray type="Float32" Name="V1" format="ascii">
5.175500e+00
2.408170e+00
5.178210e+00
2.410870e+00
5.178950e+00
2.410510e+00
5.185460e+00
2.417020e+00
5.186900e+00
2.416170e+00
5.198070e+00
2.427350e+00
5.200030e+00
2.425880e+00
5.215840e+00
2.441690e+00
5.218360e+00
2.439630e+00
5.238790e+00
2.460060e+00
5.241910e+00
2.457420e+00
5.266990e+00
2.482510e+00
5.270710e+00
2.479280e+00
5.300480e+00
2.509050e+00
5.304820e+00
2.505240e+00
5.339310e+00
2.539730e+00
5.344300e+00
2.535320e+00
5.383570e+00
2.574590e+00
5.389210e+00
2.569570e+00
5.433330e+00
2.613680e+00
5.439650e+00
2.608040e+00
5.488670e+00
2.657060e+00
5.495690e+00
2.650770e+00
5.549700e+00
2.704780e+00
5.557440e+00
2.697840e+00
5.616530e+00
2.756920e+00
5.625020e+00
2.749290e+00
5.689270e+00
2.813550e+00
5.698540e+00
2.805220e+00
5.768070e+00
2.874750e+00
5.778140e+00
2.865690e+00
5.853070e+00
2.940620e+00
5.863980e+00
2.930800e+00
5.944430e+00
3.011240e+00
5.956210e+00
3.000640e+00
6.042310e+00
3.086740e+00
6.055010e+00
3.075310e+00
6.146920e+00
3.167220e+00
6.160580e+00
3.154940e+00
6.258440e+00
3.252800e+00
6.273110e+00
3.239620e+00
6.377110e+00
3.343620e+00
6.392810e+00
3.329510e+00
6.503110e+00
3.439810e+00
6.519810e+00
3.424820e+00
6.636570e+00
3.541570e+00
6.653910e+00
3.526030e+00
6.777240e+00
3.649360e+00
6.793820e+00
3.634520e+00
6.923770e+00
3.764470e+00
6.935020e+00
3.754370e+00
7.071570e+00
3.890930e+00
7.064390e+00
3.897100e+00
7.207890e+00
4.040600e+00
7.148380e+00
4.092720e+00
7.301800e+00
4.246140e+00
7.113380e+00
4.411070e+00
7.290820e+00
4.588510e+00
6.837620e+00
4.985300e+00
7.087470e+00
5.235150e+00
6.422120e+00
5.876590e+00
6.660320e+00
6.114790e+00
6.299730e+00
6.408750e+00
6.468540e+00
6.577560e+00
6.342140e+00
6.690670e+00
6.511750e+00
6.860280e+00
6.473800e+00
6.894630e+00
6.641330e+00
7.062160e+00
6.644060e+00
7.059990e+00
6.806770e+00
7.222710e+00
6.827310e+00
7.204450e+00
6.983280e+00
7.360430e+00
7.010860e+00
7.335890e+00
7.158400e+00
7.483440e+00
7.187810e+00
7.457220e+00
7.325690e+00
7.595090e+00
7.354490e+00
7.569470e+00
7.481580e+00
7.696560e+00
7.508510e+00
7.672580e+00
7.624020e+00
7.788090e+00
7.648520e+00
7.766320e+00
7.751710e+00
7.869510e+00
7.773420e+00
7.850200e+00
7.863800e+00
7.940580e+00
7.882590e+00
7.923910e+00
7.959680e+00
8.001000e+00
7.975410e+00
7.987020e+00
8.038910e+00
8.050520e+00
8.051550e+00
8.039310e+00
8.101180e+00
8.088930e+00
8.110680e+00
8.080500e+00
8.146260e+00
8.116080e+00
8.152610e+00
8.110450e+00
8.174000e+00
8.131850e+00
8.177180e+00
8.129030e+00
8.184320e+00
8.136170e+00
</DataArray>
<DataArray type="Float32" Name="V2" format="ascii">
4.291660e-01
4.900000e-01
4.302520e-01
4.910420e-01
4.302520e-01
4.910420e-01
4.335070e-01
4.941660e-01
4.335070e-01
4.941660e-01
4.389240e-01
4.993650e-01
4.389240e-01
4.993650e-01
4.464890e-01
5.066250e-01
4.464890e-01
5.066250e-01
4.561840e-01
5.159300e-01
4.561840e-01
5.159300e-01
4.679840e-01
5.272560e-01
4.679840e-01
5.272560e-01
4.818620e-01
5.405750e-01
4.818620e-01
5.405750e-01
4.977830e-01
5.558570e-01
4.977830e-01
5.558570e-01
5.157090e-01
5.730620e-01
5.157090e-01
5.730620e-01
5.355940e-01
5.921500e-01
5.355940e-01
5.921500e-01
5.573910e-01
6.130720e-01
5.573910e-01
6.130720e-01
5.810460e-01
6.357780e-01
5.810460e-01
6.357780e-01
6.064990e-01
6.602110e-01
6.064990e-01
6.602110e-01
6.336880e-01
6.863110e-01
6.336880e-01
6.863110e-01
6.625440e-01
7.140120e-01
6.625440e-01
7.140120e-01
6.929960e-01
7.432460e-01
6.929960e-01
7.432460e-01
7.249660e-01
7.739380e-01
7.249660e-01
7.739380e-01
7.583740e-01
8.060120e-01
7.583740e-01
8.060120e-01
7.931340e-01
8.393840e-01
7.931340e-01
8.393840e-01
8.291570e-01
8.739700e-01
8.291570e-01
8.739700e-01
8.663520e-01
9.096810e-01
8.663520e-01
9.096810e-01
9.046220e-01
9.464250e-01
9.046220e-01
9.464250e-01
9.438660e-01
9.841050e-01
9.438660e-01
9.841050e-01
9.839820e-01
1.022630e+00
9.839820e-01
1.022630e+00
1.024860e+00
1.061890e+00
1.024860e+00
1.061890e+00
1.066380e+00
1.101820e+00
1.066380e+00
1.101820e+00
1.108370e+00
1.142360e+00
1.108370e+00
1.142360e+00
1.150600e+00
1.183500e+00
1.150600e+00
1.183500e+00
1.192560e+00
1.225250e+00
1.192560e+00
1.225250e+00
1.233410e+00
1.267360e+00
1.233410e+00
1.267360e+00
1.272360e+00
1.307520e+00
1.272360e+00
1.307520e+00
1.308580e+00
1.345180e+00
1.308580e+00
1.345180e+00
1.342270e+00
1.380650e+00
1.342270e+00
1.380650e+00
1.373590e+00
1.413700e+00
1.373590e+00
1.413700e+00
1.402570e+00
1.444230e+00
1.402570e+00
1.444230e+00
1.429270e+00
1.472260e+00
1.429270e+00
1.472260e+00
1.453690e+00
1.497800e+00
1.453690e+00
1.497800e+00
1.475870e+00
1.520920e+00
1.475870e+00
1.520920e+00
1.495840e+00
1.541650e+00
1.495840e+00
1.541650e+00
1.513620e+00
1.560070e+00
1.513620e+00
1.560070e+00
1.529240e+00
1.576200e+00
1.529240e+00
1.576200e+00
1.542730e+00
1.590100e+00
1.542730e+00
1.590100e+00
1.554100e+00
1.601800e+00
1.554100e+00
1.601800e+00
1.563380e+00
1.611330e+00
1.563380e+00
1.611330e+00
1.570580e+00
1.618710e+00
1.570580e+00
1.618710e+00
1.575710e+00
1.623970e+00
1.575710e+00
1.623970e+00
1.578790e+00
1.627120e+00
1.578790e+00
1.627120e+00
1.579810e+00
1.628170e+00
</DataArray>
<DataArray type="Float32" Name="V3" format="ascii">
0.000000e+00
0.000000e+00
2.582460e-02
2.381880e-02
2.582460e-02
2.381880e-02
5.153390e-02
4.752640e-02
5.153390e-02
4.752640e-02
7.701280e-02
7.101230e-02
7.701280e-02
7.101230e-02
1.021470e-01
9.416580e-02
1.021470e-01
9.416580e-02
1.268210e-01
1.168770e-01
1.268210e-01
1.168770e-01
1.509230e-01
1.390370e-01
1.509230e-01
1.390370e-01
1.743390e-01
1.605370e-01
1.743390e-01
1.605370e-01
1.969610e-01
1.812720e-01
1.969610e-01
1.812720e-01
2.186790e-01
2.011350e-01
2.186790e-01
2.011350e-01
2.393850e-01
2.200240e-01
2.393850e-01
2.200240e-01
2.589730e-01
2.378360e-01
2.589730e-01
2.378360e-01
2.773410e-01
2.544720e-01
2.773410e-01
2.544720e-01
2.943870e-01
2.698340e-01
2.943870e-01
2.698340e-01
3.100140e-01
2.838270e-01
3.100140e-01
2.838270e-01
3.241240e-01
2.963590e-01
3.241240e-01
2.963590e-01
3.366270e-01
3.073400e-01
3.366270e-01
3.073400e-01
3.474310e-01
3.166830e-01
3.474310e-01
3.166830e-01
3.564520e-01
3.243050e-01
3.564520e-01
3.243050e-01
3.636070e-01
3.301250e-01
3.636070e-01
3.301250e-01
3.688160e-01
3.340670e-01
3.688160e-01
3.340670e-01
3.720050e-01
3.360590e-01
3.720050e-01
3.360590e-01
3.731020e-01
3.360300e-01
3.731020e-01
3.360300e-01
3.720400e-01
3.339170e-01
3.720400e-01
3.339170e-01
3.687550e-01
3.296610e-01
3.687550e-01
3.296610e-01
3.631820e-01
3.232130e-01
3.631820e-01
3.232130e-01
3.552530e-01
3.145380e-01
3.552530e-01
3.145380e-01
3.448860e-01
3.036250e-01
3.448860e-01
3.036250e-01
3.319800e-01
2.904990e-01
3.319800e-01
2.904990e-01
3.164630e-01
2.751850e-01
3.164630e-01
2.751850e-01
2.985860e-01
2.575060e-01
2.985860e-01
2.575060e-01
2.796080e-01
2.389620e-01
2.796080e-01
2.389620e-01
2.605160e-01
2.219550e-01
2.605160e-01
2.219550e-01
2.418940e-01
2.059150e-01
2.418940e-01
2.059150e-01
2.238360e-01
1.906330e-01
2.238360e-01
1.906330e-01
2.063210e-01
1.759350e-01
2.063210e-01
1.759350e-01
1.892690e-01
1.616660e-01
1.892690e-01
1.616660e-01
1.726100e-01
1.477170e-01
1.726100e-01
1.477170e-01
1.562600e-01
1.339880e-01
1.562600e-01
1.339880e-01
1.401640e-01
1.204170e-01
1.401640e-01
1.204170e-01
1.242540e-01
1.069450e-01
1.242540e-01
1.069450e-01
1.084960e-01
9.353910e-02
1.084960e-01
9.353910e-02
9.284360e-02
8.016460e-02
9.284360e-02
8.016460e-02
7.727640e-02
6.681010e-02
7.727640e-02
6.681010e-02
6.176250e-02
5.345520e-02
6.176250e-02
5.345520e-02
4.629390e-02
4.010120e-02
4.629390e-02
4.010120e-02
3.084750e-02
2.673740e-02
3.084750e-02
2.673740e-02
1.542220e-02
1.337240e-02
1.542220e-02
1.337240e-02
0.000000e+00
0.000000e+00
</DataArray>
<DataArray type="Float32" Name="V4" format="ascii">
9.000000e-01
1.000000e+00
9.000000e-01
1.000000e+00
9.000000e-01
1.000000e+00
9.000000e-01
1.000000e+00
9.000000e-01
1.000000e+00
9.000000e-01
1.000000e+00
9.000000e-01
1.000000e+00
9.000000e-01
1.000000e+00
9.000000e-01
1.000000e+00
9.000000e-01
1.000000e+00
9.000000e-01
1.000000e+00
9.000000e-01
1.000000e+00
9.000000e-01
1.000000e+00
9.000000e-01
1.000000e+00
9.000000e-01
1.000000e+00
9.000000e-01
1.000000e+00
9.000000e-01
1.000000e+00
9.000000e-01
1.000000e+00
9.000000e-01
1.000000e+00
9.000000e-01
1.000000e+00
9.000000e-01
1.000000e+00
9.000000e-01
1.000000e+00
9.000000e-01
1.000000e+00
9.000000e-01
1.000000e+00
9.000000e-01
1.000000e+00
9.000000e-01
1.000000e+00
9.000000e-01
1.000000e+00
9.000000e-01
1.000000e+00
9.000000e-01
1.000000e+00
9.000000e-01
1.000000e+00
9.000000e-01
1.000000e+00
9.000000e-01
1.000000e+00
9.000000e-01
1.000000e+00
9.000000e-01
1.000000e+00
9.000000e-01
1.000000e+00
9.000000e-01
1.000000e+00
9.000000e-01
1.000000e+00
9.000000e-01
1.000000e+00
9.000000e-01
1.000000e+00
9.000000e-01
1.000000e+00
9.000000e-01
1.000000e+00
9.000000e-01
1.000000e+00
9.000000e-01
1.000000e+00
9.000000e-01
1.000000e+00
9.000000e-01
1.000000e+00
9.000000e-01
1.000000e+00
9.000000e-01
1.000000e+00
9.000000e-01
1.000000e+00
9.000000e-01
1.000000e+00
9.000000e-01
1.000000e+00
9.000000e-01
1.000000e+00
9.000000e-01
1.000000e+00
9.000000e-01
1.000000e+00
9.000000e-01
1.000000e+00
9.000000e-01
1.000000e+00
9.000000e-01
1.000000e+00
9.000000e-01
1.000000e+00
9.000000e-01
1.000000e+00
9.000000e-01
1.000000e+00
9.000000e-01
1.000000e+00
9.000000e-01
1.000000e+00
9.000000e-01
1.000000e+00
9.000000e-01
1.000000e+00
9.000000e-01
1.000000e+00
9.000000e-01
1.000000e+00
9.000000e-01
1.000000e+00
9.000000e-01
1.000000e+00
9.000000e-01
1.000000e+00
9.000000e-01
1.000000e+00
9.000000e-01
1.000000e+00
9.000000e-01
1.000000e+00
9.000000e-01
1.000000e+00
9.000000e-01
1.000000e+00
9.000000e-01
1.000000e+00
9.000000e-01
1.000000e+00
9.000000e-01
1.000000e+00
9.000000e-01
1.000000e+00
9.000000e-01
1.000000e+00
9.000000e-01
1.000000e+00
9.000000e-01
1.000000e+00
9.000000e-01
1.000000e+00
9.000000e-01
1.000000e+00
9.000000e-01
1.000000e+00
9.000000e-01
1.000000e+00
9.000000e-01
1.000000e+00
9.000000e-01
1.000000e+00
9.000000e-01
1.000000e+00
9.000000e-01
1.000000e+00
9.000000e-01
1.000000e+00
9.000000e-01
1.000000e+00
9.000000e-01
1.000000e+00
9.000000e-01
1.000000e+00
9.000000e-01
1.000000e+00
9.000000e-01
1.000000e+00
9.000000e-01
1.000000e+00
9.000000e-01
1.000000e+00
</DataArray>
<DataArray type="Float32" Name="V5" format="ascii">
0.000000e+00
0.000000e+00
3.272490e-02
3.272490e-02
3.272490e-02
3.272490e-02
6.544980e-02
6.544980e-02
6.544980e-02
6.544980e-02
9.817480e-02
9.817480e-02
9.817480e-02
9.817480e-02
1.309000e-01
1.309000e-01
1.309000e-01
1.309000e-01
1.636250e-01
1.636250e-01
1.636250e-01
1.636250e-01
1.963500e-01
1.963500e-01
1.963500e-01
1.963500e-01
2.290740e-01
2.290740e-01
2.290740e-01
2.290740e-01
2.617990e-01
2.617990e-01
2.617990e-01
2.617990e-01
2.945240e-01
2.945240e-01
2.945240e-01
2.945240e-01
3.272490e-01
3.272490e-01
3.272490e-01
3.272490e-01
3.599740e-01
3.599740e-01
3.599740e-01
3.599740e-01
3.926990e-01
3.926990e-01
3.926990e-01
3.926990e-01
4.254240e-01
4.254240e-01
4.254240e-01
4.254240e-01
4.581490e-01
4.581490e-01
4.581490e-01
4.581490e-01
4.908740e-01
4.908740e-01
4.908740e-01
4.908740e-01
5.235990e-01
5.235990e-01
5.235990e-01
5.235990e-01
5.563240e-01
5.563240e-01
5.563240e-01
5.563240e-01
5.890490e-01
5.890490e-01
5.890490e-01
5.890490e-01
6.217740e-01
6.217740e-01
6.217740e-01
6.217740e-01
6.544980e-01
6.544980e-01
6.544980e-01
6.544980e-01
6.872230e-01
6.872230e-01
6.872230e-01
6.872230e-01
7.199480e-01
7.199480e-01
7.199480e-01
7.199480e-01
7.526730e-01
7.526730e-01
7.526730e-01
7.526730e-01
7.853980e-01
7.853980e-01
7.853980e-01
7.853980e-01
8.181230e-01
8.181230e-01
8.181230e-01
8.181230e-01
8.508480e-01
8.508480e-01
8.508480e-01
8.508480e-01
8.835730e-01
8.835730e-01
8.835730e-01
8.835730e-01
9.162980e-01
9.162980e-01
9.162980e-01
9.162980e-01
9.490230e-01
9.490230e-01
9.490230e-01
9.490230e-01
9.817480e-01
9.817480e-01
9.817480e-01
9.817480e-01
1.014470e+00
1.014470e+00
1.014470e+00
1.014470e+00
1.047200e+00
1.047200e+00
1.047200e+00
1.047200e+00
1.079920e+00
1.079920e+00
1.079920e+00
1.079920e+00
1.112650e+00
1.112650e+00
1.112650e+00
1.112650e+00
1.145370e+00
1.145370e+00
1.145370e+00
1.145370e+00
1.178100e+00
1.178100e+00
1.178100e+00
1.178100e+00
1.210820e+00
1.210820e+00
1.210820e+00
1.210820e+00
1.243550e+00
1.243550e+00
1.243550e+00
1.243550e+00
1.276270e+00
1.276270e+00
1.276270e+00
1.276270e+00
1.309000e+00
1.309000e+00
1.309000e+00
1.309000e+00
1.341720e+00
1.341720e+00
1.341720e+00
1.341720e+00
1.374450e+00
1.374450e+00
1.374450e+00
1.374450e+00
1.407170e+00
1.407170e+00
1.407170e+00
1.407170e+00
1.439900e+00
1.439900e+00
1.439900e+00
1.439900e+00
1.472620e+00
1.472620e+00
1.472620e+00
1.472620e+00
1.505350e+00
1.505350e+00
1.505350e+00
1.505350e+00
1.538070e+00
1.538070e+00
1.538070e+00
1.538070e+00
1.570800e+00
1.570800e+00
</DataArray>
</PointData>
</Piece></UnstructuredGrid>
</VTKFile>
