<?xml version="1.0"?>
<VTKFile type="UnstructuredGrid" version="0.1" byte_order="LittleEndian" compressor="vtkZLibDataCompressor">
<UnstructuredGrid>
<Piece NumberOfPoints="192" NumberOfCells="48">
<Points>
<DataArray type="Float32" NumberOfComponents="3" format="ascii">
0.000000e+00 8.599690e-01 0.000000e+00
0.000000e+00 9.600000e-01 0.000000e+00
3.065850e-02 8.599870e-01 0.000000e+00
3.149860e-02 9.600000e-01 0.000000e+00
3.065850e-02 8.599870e-01 0.000000e+00
3.149860e-02 9.600000e-01 0.000000e+00
6.115920e-02 8.599880e-01 0.000000e+00
6.310450e-02 9.600000e-01 0.000000e+00
6.115920e-02 8.599880e-01 0.000000e+00
6.310450e-02 9.600000e-01 0.000000e+00
9.136130e-02 8.597920e-01 0.000000e+00
9.489540e-02 9.600000e-01 0.000000e+00
9.136130e-02 8.597920e-01 0.000000e+00
9.489540e-02 9.600000e-01 0.000000e+00
1.212710e-01 8.591790e-01 0.000000e+00
1.268530e-01 9.598430e-01 0.000000e+00
1.212710e-01 8.591790e-01 0.000000e+00
1.268530e-01 9.598430e-01 0.000000e+00
1.508670e-01 8.578680e-01 0.000000e+00
1.589430e-01 9.584520e-01 0.000000e+00
1.508670e-01 8.578680e-01 0.000000e+00
1.589430e-01 9.584520e-01 0.000000e+00
1.801100e-01 8.556850e-01 0.000000e+00
1.911780e-01 9.558790e-01 0.000000e+00
1.801100e-01 8.556850e-01 0.000000e+00
1.911780e-01 9.558790e-01 0.000000e+00
2.090700e-01 8.524800e-01 0.000000e+00
2.234630e-01 9.521260e-01 0.000000e+00
2.090700e-01 8.524800e-01 0.000000e+00
2.234630e-01 9.521260e-01 0.000000e+00
2.377680e-01 8.481960e-01 0.000000e+00
2.557020e-01 9.471410e-01 0.000000e+00
2.377680e-01 8.481960e-01 0.000000e+00
2.557020e-01 9.471410e-01 0.000000e+00
2.661980e-01 8.427990e-01 0.000000e+00
2.878020e-01 9.408850e-01 0.000000e+00
2.661980e-01 8.427990e-01 0.000000e+00
2.878020e-01 9.408850e-01 0.000000e+00
2.943400e-01 8.362720e-01 0.000000e+00
3.196780e-01 9.333430e-01 0.000000e+00
2.943400e-01 8.362720e-01 0.000000e+00
3.196780e-01 9.333430e-01 0.000000e+00
3.221680e-01 8.286110e-01 0.000000e+00
3.512570e-01 9.245140e-01 0.000000e+00
3.221680e-01 8.286110e-01 0.000000e+00
3.512570e-01 9.245140e-01 0.000000e+00
3.496550e-01 8.198220e-01 0.000000e+00
3.824700e-01 9.144120e-01 0.000000e+00
3.496550e-01 8.198220e-01 0.000000e+00
3.824700e-01 9.144120e-01 0.000000e+00
3.767680e-01 8.099190e-01 0.000000e+00
4.132560e-01 9.030600e-01 0.000000e+00
3.767680e-01 8.099190e-01 0.000000e+00
4.132560e-01 9.030600e-01 0.000000e+00
4.034760e-01 7.989210e-01 0.000000e+00
4.435620e-01 8.904890e-01 0.000000e+00
4.034760e-01 7.989210e-01 0.000000e+00
4.435620e-01 8.904890e-01 0.000000e+00
4.297470e-01 7.868540e-01 0.000000e+00
4.733390e-01 8.767320e-01 0.000000e+00
4.297470e-01 7.868540e-01 0.000000e+00
4.733390e-01 8.767320e-01 0.000000e+00
4.555510e-01 7.737480e-01 0.000000e+00
5.025470e-01 8.618290e-01 0.000000e+00
4.555510e-01 7.737480e-01 0.000000e+00
5.025470e-01 8.618290e-01 0.000000e+00
4.808580e-01 7.596320e-01 0.000000e+00
5.311470e-01 8.458210e-01 0.000000e+00
4.808580e-01 7.596320e-01 0.000000e+00
5.311470e-01 8.458210e-01 0.000000e+00
5.056400e-01 7.445410e-01 0.000000e+00
5.591070e-01 8.287480e-01 0.000000e+00
5.056400e-01 7.445410e-01 0.000000e+00
5.591070e-01 8.287480e-01 0.000000e+00
5.298690e-01 7.285090e-01 0.000000e+00
5.863980e-01 8.106520e-01 0.000000e+00
5.298690e-01 7.285090e-01 0.000000e+00
5.863980e-01 8.106520e-01 0.000000e+00
5.535190e-01 7.115700e-01 0.000000e+00
6.129950e-01 7.915750e-01 0.000000e+00
5.535190e-01 7.115700e-01 0.000000e+00
6.129950e-01 7.915750e-01 0.000000e+00
5.765670e-01 6.937600e-01 0.000000e+00
6.388720e-01 7.715550e-01 0.000000e+00
5.765670e-01 6.937600e-01 0.000000e+00
6.388720e-01 7.715550e-01 0.000000e+00
5.989880e-01 6.751120e-01 0.000000e+00
6.640090e-01 7.506310e-01 0.000000e+00
5.989880e-01 6.751120e-01 0.000000e+00
6.640090e-01 7.506310e-01 0.000000e+00
6.207590e-01 6.556610e-01 0.000000e+00
6.883850e-01 7.288420e-01 0.000000e+00
6.207590e-01 6.556610e-01 0.000000e+00
6.883850e-01 7.288420e-01 0.000000e+00
6.418600e-01 6.354410e-01 0.000000e+00
7.119810e-01 7.062240e-01 0.000000e+00
6.418600e-01 6.354410e-01 0.000000e+00
7.119810e-01 7.062240e-01 0.000000e+00
6.622700e-01 6.144840e-01 0.000000e+00
7.347790e-01 6.828110e-01 0.000000e+00
6.622700e-01 6.144840e-01 0.000000e+00
7.347790e-01 6.828110e-01 0.000000e+00
6.819680e-01 5.928230e-01 0.000000e+00
7.567610e-01 6.586390e-01 0.000000e+00
6.819680e-01 5.928230e-01 0.000000e+00
7.567610e-01 6.586390e-01 0.000000e+00
7.009370e-01 5.704900e-01 0.000000e+00
7.779100e-01 6.337410e-01 0.000000e+00
7.009370e-01 5.704900e-01 0.000000e+00
7.779100e-01 6.337410e-01 0.000000e+00
7.191560e-01 5.475160e-01 0.000000e+00
7.982090e-01 6.081490e-01 0.000000e+00
7.191560e-01 5.475160e-01 0.000000e+00
7.982090e-01 6.081490e-01 0.000000e+00
7.366090e-01 5.239320e-01 0.000000e+00
8.176410e-01 5.818960e-01 0.000000e+00
7.366090e-01 5.239320e-01 0.000000e+00
8.176410e-01 5.818960e-01 0.000000e+00
7.532780e-01 4.997680e-01 0.000000e+00
8.361910e-01 5.550130e-01 0.000000e+00
7.532780e-01 4.997680e-01 0.000000e+00
8.361910e-01 5.550130e-01 0.000000e+00
7.691470e-01 4.750550e-01 0.000000e+00
8.538420e-01 5.275320e-01 0.000000e+00
7.691470e-01 4.750550e-01 0.000000e+00
8.538420e-01 5.275320e-01 0.000000e+00
7.842000e-01 4.498230e-01 0.000000e+00
8.705790e-01 4.994860e-01 0.000000e+00
7.842000e-01 4.498230e-01 0.000000e+00
8.705790e-01 4.994860e-01 0.000000e+00
7.984220e-01 4.241010e-01 0.000000e+00
8.863880e-01 4.709040e-01 0.000000e+00
7.984220e-01 4.241010e-01 0.000000e+00
8.863880e-01 4.709040e-01 0.000000e+00
8.117990e-01 3.979200e-01 0.000000e+00
9.012530e-01 4.418180e-01 0.000000e+00
8.117990e-01 3.979200e-01 0.000000e+00
9.012530e-01 4.418180e-01 0.000000e+00
8.243150e-01 3.713090e-01 0.000000e+00
9.151600e-01 4.122610e-01 0.000000e+00
8.243150e-01 3.713090e-01 0.000000e+00
9.151600e-01 4.122610e-01 0.000000e+00
8.359600e-01 3.442970e-01 0.000000e+00
9.280960e-01 3.822640e-01 0.000000e+00
8.359600e-01 3.442970e-01 0.000000e+00
9.280960e-01 3.822640e-01 0.000000e+00
8.467200e-01 3.169160e-01 0.000000e+00
9.400470e-01 3.518590e-01 0.000000e+00
8.467200e-01 3.169160e-01 0.000000e+00
9.400470e-01 3.518590e-01 0.000000e+00
8.565840e-01 2.891950e-01 0.000000e+00
9.510030e-01 3.210790e-01 0.000000e+00
8.565840e-01 2.891950e-01 0.000000e+00
9.510030e-01 3.210790e-01 0.000000e+00
8.655410e-01 2.611640e-01 0.000000e+00
9.609510e-01 2.899560e-01 0.000000e+00
8.655410e-01 2.611640e-01 0.000000e+00
9.609510e-01 2.899560e-01 0.000000e+00
8.735820e-01 2.328530e-01 0.000000e+00
9.698810e-01 2.585240e-01 0.000000e+00
8.735820e-01 2.328530e-01 0.000000e+00
9.698810e-01 2.585240e-01 0.000000e+00
8.806980e-01 2.042930e-01 0.000000e+00
9.777840e-01 2.268160e-01 0.000000e+00
8.806980e-01 2.042930e-01 0.000000e+00
9.777840e-01 2.268160e-01 0.000000e+00
8.868810e-01 1.755150e-01 0.000000e+00
9.846500e-01 1.948660e-01 0.000000e+00
8.868810e-01 1.755150e-01 0.000000e+00
9.846500e-01 1.948660e-01 0.000000e+00
8.921240e-01 1.465500e-01 0.000000e+00
9.904730e-01 1.627070e-01 0.000000e+00
8.921240e-01 1.465500e-01 0.000000e+00
9.904730e-01 1.627070e-01 0.000000e+00
8.964230e-01 1.174280e-01 0.000000e+00
9.952470e-01 1.303750e-01 0.000000e+00
8.964230e-01 1.174280e-01 0.000000e+00
9.952470e-01 1.303750e-01 0.000000e+00
8.997710e-01 8.818090e-02 0.000000e+00
9.989650e-01 9.790360e-02 0.000000e+00
8.997710e-01 8.818090e-02 0.000000e+00
9.989650e-01 9.790360e-02 0.000000e+00
9.021650e-01 5.883960e-02 0.000000e+00
1.001620e+00 6.532730e-02 0.000000e+00
9.021650e-01 5.883960e-02 0.000000e+00
1.001620e+00 6.532730e-02 0.000000e+00
9.036020e-01 2.943550e-02 0.000000e+00
1.003220e+00 3.268110e-02 0.000000e+00
9.036020e-01 2.943550e-02 0.000000e+00
1.003220e+00 3.268110e-02 0.000000e+00
9.040820e-01 4.426920e-12 0.000000e+00
1.003750e+00 4.914960e-12 0.000000e+00
</DataArray>
</Points>
<Cells>
<DataArray type="Int32" Name="connectivity" format="ascii">
0 1 3 2
4 5 7 6
8 9 11 10
12 13 15 14
16 17 19 18
20 21 23 22
24 25 27 26
28 29 31 30
32 33 35 34
36 37 39 38
40 41 43 42
44 45 47 46
48 49 51 50
52 53 55 54
56 57 59 58
60 61 63 62
64 65 67 66
68 69 71 70
72 73 75 74
76 77 79 78
80 81 83 82
84 85 87 86
88 89 91 90
92 93 95 94
96 97 99 98
100 101 103 102
104 105 107 106
108 109 111 110
112 113 115 114
116 117 119 118
120 121 123 122
124 125 127 126
128 129 131 130
132 133 135 134
136 137 139 138
140 141 143 142
144 145 147 146
148 149 151 150
152 153 155 154
156 157 159 158
160 161 163 162
164 165 167 166
168 169 171 170
172 173 175 174
176 177 179 178
180 181 183 182
184 185 187 186
188 189 191 190
</DataArray>
<DataArray type="Int32" Name="offsets" format="ascii">
4
8
12
16
20
24
28
32
36
40
44
48
52
56
60
64
68
72
76
80
84
88
92
96
100
104
108
112
116
120
124
128
132
136
140
144
148
152
156
160
164
168
172
176
180
184
188
192
</DataArray>
<DataArray type="UInt8" Name="types" format="ascii">
9
9
9
9
9
9
9
9
9
9
9
9
9
9
9
9
9
9
9
9
9
9
9
9
9
9
9
9
9
9
9
9
9
9
9
9
9
9
9
9
9
9
9
9
9
9
9
9
</DataArray>
</Cells>
<PointData>
<DataArray type="Float32" Name="V1" format="ascii">
7.640180e-01
-1.134000e+00
7.638560e-01
-1.134160e+00
7.108680e-01
-1.084990e+00
7.151820e-01
-1.080680e+00
5.964020e-01
-9.713630e-01
6.258710e-01
-9.418940e-01
4.210780e-01
-7.396420e-01
4.864210e-01
-6.742990e-01
2.876070e-01
-4.780370e-01
3.116900e-01
-4.539550e-01
1.879120e-01
-3.428050e-01
1.973380e-01
-3.333790e-01
1.052680e-01
-2.472850e-01
1.149550e-01
-2.375980e-01
4.434280e-02
-1.713250e-01
5.478010e-02
-1.608870e-01
8.302310e-04
-1.103520e-01
1.139620e-02
-9.978630e-02
-2.922280e-02
-6.181640e-02
-1.895860e-02
-5.155220e-02
-4.881790e-02
-2.368370e-02
-3.912240e-02
-1.398830e-02
-6.030450e-02
5.758200e-03
-5.134620e-02
1.471660e-02
-6.557890e-02
2.797120e-02
-5.745720e-02
3.609290e-02
-6.618870e-02
4.421580e-02
-5.895080e-02
5.145380e-02
-6.339740e-02
5.558330e-02
-5.704980e-02
6.193080e-02
-5.822890e-02
6.301690e-02
-5.274780e-02
6.849790e-02
-5.150370e-02
6.732760e-02
-4.684350e-02
7.198780e-02
-4.386920e-02
6.920660e-02
-3.996940e-02
7.310630e-02
-3.582630e-02
6.923690e-02
-3.261790e-02
7.244540e-02
-2.775360e-02
6.790460e-02
-2.516300e-02
7.049530e-02
-1.992810e-02
6.560940e-02
-1.788110e-02
6.765650e-02
-1.254410e-02
6.267550e-02
-1.096840e-02
6.425120e-02
-5.729100e-03
5.936140e-02
-4.556250e-03
6.053420e-02
4.419660e-04
5.586920e-02
1.275560e-03
5.670280e-02
5.935050e-03
5.235370e-02
6.487260e-03
5.290590e-02
1.074700e-02
4.892960e-02
1.106970e-02
4.925230e-02
1.489740e-02
4.567900e-02
1.503640e-02
4.581790e-02
1.842200e-02
4.265720e-02
1.841700e-02
4.265220e-02
2.136690e-02
3.989810e-02
2.125230e-02
3.978350e-02
2.378500e-02
3.741870e-02
2.358970e-02
3.722350e-02
2.573210e-02
3.522310e-02
2.548050e-02
3.497160e-02
2.726470e-02
3.330560e-02
2.697690e-02
3.301770e-02
2.843830e-02
3.165310e-02
2.813040e-02
3.134520e-02
2.930550e-02
3.024780e-02
2.899050e-02
2.993280e-02
2.991590e-02
2.906870e-02
2.960400e-02
2.875680e-02
3.031480e-02
2.809290e-02
3.001370e-02
2.779180e-02
3.054360e-02
2.729690e-02
3.025890e-02
2.701230e-02
3.063890e-02
2.665740e-02
3.037480e-02
2.639330e-02
3.063350e-02
2.615180e-02
3.039270e-02
2.591090e-02
3.055560e-02
2.575880e-02
3.033980e-02
2.554300e-02
3.042980e-02
2.545890e-02
3.023990e-02
2.526900e-02
3.027700e-02
2.523440e-02
3.011330e-02
2.507070e-02
3.011440e-02
2.506960e-02
2.997690e-02
2.493210e-02
2.995650e-02
2.495110e-02
2.984490e-02
2.483940e-02
2.981480e-02
2.486740e-02
2.972850e-02
2.478120e-02
2.969800e-02
2.480970e-02
2.963680e-02
2.474850e-02
2.961270e-02
2.477100e-02
2.957610e-02
2.473440e-02
2.956290e-02
2.474670e-02
2.955070e-02
2.473450e-02
</DataArray>
<DataArray type="Float32" Name="V2" format="ascii">
8.599690e-01
9.600000e-01
8.605290e-01
9.605170e-01
8.605290e-01
9.605170e-01
8.621460e-01
9.620720e-01
8.621460e-01
9.620720e-01
8.646070e-01
9.646790e-01
8.646070e-01
9.646790e-01
8.676580e-01
9.681890e-01
8.676580e-01
9.681890e-01
8.709860e-01
9.715410e-01
8.709860e-01
9.715410e-01
8.743810e-01
9.748090e-01
8.743810e-01
9.748090e-01
8.776860e-01
9.779970e-01
8.776860e-01
9.779970e-01
8.808330e-01
9.810480e-01
8.808330e-01
9.810480e-01
8.837810e-01
9.839150e-01
8.837810e-01
9.839150e-01
8.865040e-01
9.865670e-01
8.865040e-01
9.865670e-01
8.889860e-01
9.889880e-01
8.889860e-01
9.889880e-01
8.912240e-01
9.911720e-01
8.912240e-01
9.911720e-01
8.932200e-01
9.931190e-01
8.932200e-01
9.931190e-01
8.949830e-01
9.948370e-01
8.949830e-01
9.948370e-01
8.965250e-01
9.963390e-01
8.965250e-01
9.963390e-01
8.978600e-01
9.976390e-01
8.978600e-01
9.976390e-01
8.990070e-01
9.987540e-01
8.990070e-01
9.987540e-01
8.999820e-01
9.997020e-01
8.999820e-01
9.997020e-01
9.008030e-01
1.000500e+00
9.008030e-01
1.000500e+00
9.014880e-01
1.001170e+00
9.014880e-01
1.001170e+00
9.020540e-01
1.001720e+00
9.020540e-01
1.001720e+00
9.025160e-01
1.002170e+00
9.025160e-01
1.002170e+00
9.028900e-01
1.002530e+00
9.028900e-01
1.002530e+00
9.031880e-01
1.002820e+00
9.031880e-01
1.002820e+00
9.034240e-01
1.003050e+00
9.034240e-01
1.003050e+00
9.036070e-01
1.003230e+00
9.036070e-01
1.003230e+00
9.037460e-01
1.003370e+00
9.037460e-01
1.003370e+00
9.038510e-01
1.003480e+00
9.038510e-01
1.003480e+00
9.039290e-01
1.003560e+00
9.039290e-01
1.003560e+00
9.039840e-01
1.003620e+00
9.039840e-01
1.003620e+00
9.040230e-01
1.003660e+00
9.040230e-01
1.003660e+00
9.040490e-01
1.003690e+00
9.040490e-01
1.003690e+00
9.040650e-01
1.003710e+00
9.040650e-01
1.003710e+00
9.040750e-01
1.003720e+00
9.040750e-01
1.003720e+00
9.040810e-01
1.003730e+00
9.040810e-01
1.003730e+00
9.040830e-01
1.003730e+00
9.040830e-01
1.003730e+00
9.040840e-01
1.003740e+00
9.040840e-01
1.003740e+00
9.040830e-01
1.003740e+00
9.040830e-01
1.003740e+00
9.040830e-01
1.003740e+00
9.040830e-01
1.003740e+00
9.040820e-01
1.003740e+00
9.040820e-01
1.003740e+00
9.040810e-01
1.003750e+00
9.040810e-01
1.003750e+00
9.040810e-01
1.003750e+00
9.040810e-01
1.003750e+00
9.040810e-01
1.003750e+00
9.040810e-01
1.003750e+00
9.040810e-01
1.003750e+00
9.040810e-01
1.003750e+00
9.040810e-01
1.003750e+00
9.040810e-01
1.003750e+00
9.040810e-01
1.003750e+00
9.040810e-01
1.003750e+00
9.040820e-01
1.003750e+00
9.040820e-01
1.003750e+00
9.040820e-01
1.003750e+00
</DataArray>
<DataArray type="Float32" Name="V3" format="ascii">
0.000000e+00
0.000000e+00
2.504060e-03
7.145210e-05
2.504060e-03
7.145210e-05
4.782390e-03
1.823610e-04
4.782390e-03
1.823610e-04
6.646990e-03
3.419980e-04
6.646990e-03
3.419980e-04
8.087930e-03
4.829720e-04
8.087930e-03
4.829720e-04
9.109300e-03
6.922560e-04
9.109300e-03
6.922560e-04
9.713050e-03
1.021680e-03
9.713050e-03
1.021680e-03
1.003040e-02
1.420600e-03
1.003040e-02
1.420600e-03
1.013720e-02
1.851130e-03
1.013720e-02
1.851130e-03
1.008380e-02
2.284480e-03
1.008380e-02
2.284480e-03
9.908160e-03
2.700050e-03
9.908160e-03
2.700050e-03
9.640830e-03
3.083620e-03
9.640830e-03
3.083620e-03
9.306380e-03
3.425760e-03
9.306380e-03
3.425760e-03
8.924850e-03
3.720670e-03
8.924850e-03
3.720670e-03
8.512480e-03
3.965440e-03
8.512480e-03
3.965440e-03
8.082370e-03
4.159380e-03
8.082370e-03
4.159380e-03
7.644950e-03
4.303530e-03
7.644950e-03
4.303530e-03
7.208430e-03
4.400250e-03
7.208430e-03
4.400250e-03
6.779130e-03
4.452790e-03
6.779130e-03
4.452790e-03
6.361790e-03
4.465050e-03
6.361790e-03
4.465050e-03
5.959830e-03
4.441240e-03
5.959830e-03
4.441240e-03
5.575550e-03
4.385730e-03
5.575550e-03
4.385730e-03
5.210330e-03
4.302840e-03
5.210330e-03
4.302840e-03
4.864830e-03
4.196720e-03
4.864830e-03
4.196720e-03
4.539100e-03
4.071240e-03
4.539100e-03
4.071240e-03
4.232740e-03
3.929980e-03
4.232740e-03
3.929980e-03
3.944970e-03
3.776140e-03
3.944970e-03
3.776140e-03
3.674770e-03
3.612550e-03
3.674770e-03
3.612550e-03
3.420920e-03
3.441680e-03
3.420920e-03
3.441680e-03
3.182120e-03
3.265630e-03
3.182120e-03
3.265630e-03
2.956990e-03
3.086160e-03
2.956990e-03
3.086160e-03
2.744140e-03
2.904740e-03
2.744140e-03
2.904740e-03
2.542210e-03
2.722530e-03
2.542210e-03
2.722530e-03
2.349890e-03
2.540460e-03
2.349890e-03
2.540460e-03
2.165950e-03
2.359230e-03
2.165950e-03
2.359230e-03
1.989240e-03
2.179380e-03
1.989240e-03
2.179380e-03
1.818710e-03
2.001250e-03
1.818710e-03
2.001250e-03
1.653410e-03
1.825060e-03
1.653410e-03
1.825060e-03
1.492480e-03
1.650930e-03
1.492480e-03
1.650930e-03
1.335180e-03
1.478880e-03
1.335180e-03
1.478880e-03
1.180860e-03
1.308840e-03
1.180860e-03
1.308840e-03
1.028940e-03
1.140710e-03
1.028940e-03
1.140710e-03
8.789380e-04
9.743200e-04
8.789380e-04
9.743200e-04
7.304440e-04
8.094750e-04
7.304440e-04
8.094750e-04
5.831090e-04
6.459510e-04
5.831090e-04
6.459510e-04
4.366350e-04
4.835050e-04
4.366350e-04
4.835050e-04
2.907690e-04
3.218770e-04
2.907690e-04
3.218770e-04
1.452900e-04
1.608000e-04
1.452900e-04
1.608000e-04
0.000000e+00
0.000000e+00
</DataArray>
<DataArray type="Float32" Name="V4" format="ascii">
9.000000e-01
1.000000e+00
9.000000e-01
1.000000e+00
9.000000e-01
1.000000e+00
9.000000e-01
1.000000e+00
9.000000e-01
1.000000e+00
9.000000e-01
1.000000e+00
9.000000e-01
1.000000e+00
9.000000e-01
1.000000e+00
9.000000e-01
1.000000e+00
9.000000e-01
1.000000e+00
9.000000e-01
1.000000e+00
9.000000e-01
1.000000e+00
9.000000e-01
1.000000e+00
9.000000e-01
1.000000e+00
9.000000e-01
1.000000e+00
9.000000e-01
1.000000e+00
9.000000e-01
1.000000e+00
9.000000e-01
1.000000e+00
9.000000e-01
1.000000e+00
9.000000e-01
1.000000e+00
9.000000e-01
1.000000e+00
9.000000e-01
1.000000e+00
9.000000e-01
1.000000e+00
9.000000e-01
1.000000e+00
9.000000e-01
1.000000e+00
9.000000e-01
1.000000e+00
9.000000e-01
1.000000e+00
9.000000e-01
1.000000e+00
9.000000e-01
1.000000e+00
9.000000e-01
1.000000e+00
9.000000e-01
1.000000e+00
9.000000e-01
1.000000e+00
9.000000e-01
1.000000e+00
9.000000e-01
1.000000e+00
9.000000e-01
1.000000e+00
9.000000e-01
1.000000e+00
9.000000e-01
1.000000e+00
9.000000e-01
1.000000e+00
9.000000e-01
1.000000e+00
9.000000e-01
1.000000e+00
9.000000e-01
1.000000e+00
9.000000e-01
1.000000e+00
9.000000e-01
1.000000e+00
9.000000e-01
1.000000e+00
9.000000e-01
1.000000e+00
9.000000e-01
1.000000e+00
9.000000e-01
1.000000e+00
9.000000e-01
1.000000e+00
9.000000e-01
1.000000e+00
9.000000e-01
1.000000e+00
9.000000e-01
1.000000e+00
9.000000e-01
1.000000e+00
9.000000e-01
1.000000e+00
9.000000e-01
1.000000e+00
9.000000e-01
1.000000e+00
9.000000e-01
1.000000e+00
9.000000e-01
1.000000e+00
9.000000e-01
1.000000e+00
9.000000e-01
1.000000e+00
9.000000e-01
1.000000e+00
9.000000e-01
1.000000e+00
9.000000e-01
1.000000e+00
9.000000e-01
1.000000e+00
9.000000e-01
1.000000e+00
9.000000e-01
1.000000e+00
9.000000e-01
1.000000e+00
9.000000e-01
1.000000e+00
9.000000e-01
1.000000e+00
9.000000e-01
1.000000e+00
9.000000e-01
1.000000e+00
9.000000e-01
1.000000e+00
9.000000e-01
1.000000e+00
9.000000e-01
1.000000e+00
9.000000e-01
1.000000e+00
9.000000e-01
1.000000e+00
9.000000e-01
1.000000e+00
9.000000e-01
1.000000e+00
9.000000e-01
1.000000e+00
9.000000e-01
1.000000e+00
9.000000e-01
1.000000e+00
9.000000e-01
1.000000e+00
9.000000e-01
1.000000e+00
9.000000e-01
1.000000e+00
9.000000e-01
1.000000e+00
9.000000e-01
1.000000e+00
9.000000e-01
1.000000e+00
9.000000e-01
1.000000e+00
9.000000e-01
1.000000e+00
9.000000e-01
1.000000e+00
9.000000e-01
1.000000e+00
9.000000e-01
1.000000e+00
9.000000e-01
1.000000e+00
9.000000e-01
1.000000e+00
9.000000e-01
1.000000e+00
9.000000e-01
1.000000e+00
9.000000e-01
1.000000e+00
</DataArray>
<DataArray type="Float32" Name="V5" format="ascii">
0.000000e+00
0.000000e+00
3.272490e-02
3.272490e-02
3.272490e-02
3.272490e-02
6.544980e-02
6.544980e-02
6.544980e-02
6.544980e-02
9.817480e-02
9.817480e-02
9.817480e-02
9.817480e-02
1.309000e-01
1.309000e-01
1.309000e-01
1.309000e-01
1.636250e-01
1.636250e-01
1.636250e-01
1.636250e-01
1.963500e-01
1.963500e-01
1.963500e-01
1.963500e-01
2.290740e-01
2.290740e-01
2.290740e-01
2.290740e-01
2.617990e-01
2.617990e-01
2.617990e-01
2.617990e-01
2.945240e-01
2.945240e-01
2.945240e-01
2.945240e-01
3.272490e-01
3.272490e-01
3.272490e-01
3.272490e-01
3.599740e-01
3.599740e-01
3.599740e-01
3.599740e-01
3.926990e-01
3.926990e-01
3.926990e-01
3.926990e-01
4.254240e-01
4.254240e-01
4.254240e-01
4.254240e-01
4.581490e-01
4.581490e-01
4.581490e-01
4.581490e-01
4.908740e-01
4.908740e-01
4.908740e-01
4.908740e-01
5.235990e-01
5.235990e-01
5.235990e-01
5.235990e-01
5.563240e-01
5.563240e-01
5.563240e-01
5.563240e-01
5.890490e-01
5.890490e-01
5.890490e-01
5.890490e-01
6.217740e-01
6.217740e-01
6.217740e-01
6.217740e-01
6.544980e-01
6.544980e-01
6.544980e-01
6.544980e-01
6.872230e-01
6.872230e-01
6.872230e-01
6.872230e-01
7.199480e-01
7.199480e-01
7.199480e-01
7.199480e-01
7.526730e-01
7.526730e-01
7.526730e-01
7.526730e-01
7.853980e-01
7.853980e-01
7.853980e-01
7.853980e-01
8.181230e-01
8.181230e-01
8.181230e-01
8.181230e-01
8.508480e-01
8.508480e-01
8.508480e-01
8.508480e-01
8.835730e-01
8.835730e-01
8.835730e-01
8.835730e-01
9.162980e-01
9.162980e-01
9.162980e-01
9.162980e-01
9.490230e-01
9.490230e-01
9.490230e-01
9.490230e-01
9.817480e-01
9.817480e-01
9.817480e-01
9.817480e-01
1.014470e+00
1.014470e+00
1.014470e+00
1.014470e+00
1.047200e+00
1.047200e+00
1.047200e+00
1.047200e+00
1.079920e+00
1.079920e+00
1.079920e+00
1.079920e+00
1.112650e+00
1.112650e+00
1.112650e+00
1.112650e+00
1.145370e+00
1.145370e+00
1.145370e+00
1.145370e+00
1.178100e+00
1.178100e+00
1.178100e+00
1.178100e+00
1.210820e+00
1.210820e+00
1.210820e+00
1.210820e+00
1.243550e+00
1.243550e+00
1.243550e+00
1.243550e+00
1.276270e+00
1.276270e+00
1.276270e+00
1.276270e+00
1.309000e+00
1.309000e+00
1.309000e+00
1.309000e+00
1.341720e+00
1.341720e+00
1.341720e+00
1.341720e+00
1.374450e+00
1.374450e+00
1.374450e+00
1.374450e+00
1.407170e+00
1.407170e+00
1.407170e+00
1.407170e+00
1.439900e+00
1.439900e+00
1.439900e+00
1.439900e+00
1.472620e+00
1.472620e+00
1.472620e+00
1.472620e+00
1.505350e+00
1.505350e+00
1.505350e+00
1.505350e+00
1.538070e+00
1.538070e+00
1.538070e+00
1.538070e+00
1.570800e+00
1.570800e+00
</DataArray>
</PointData>
</Piece></UnstructuredGrid>
</VTKFile>
