<?xml version="1.0"?>
<VTKFile type="UnstructuredGrid" version="0.1" byte_order="LittleEndian" compressor="vtkZLibDataCompressor">
<UnstructuredGrid>
<Piece NumberOfPoints="192" NumberOfCells="48">
<Points>
<DataArray type="Float32" NumberOfComponents="3" format="ascii">
0.000000e+00 6.620300e-01 0.000000e+00
0.000000e+00 7.600000e-01 0.000000e+00
3.144820e-02 6.620430e-01 0.000000e+00
3.141170e-02 7.600000e-01 0.000000e+00
3.144820e-02 6.620430e-01 0.000000e+00
3.141170e-02 7.600000e-01 0.000000e+00
6.289450e-02 6.620830e-01 0.000000e+00
6.282130e-02 7.600000e-01 0.000000e+00
6.289450e-02 6.620830e-01 0.000000e+00
6.282130e-02 7.600000e-01 0.000000e+00
9.433690e-02 6.621490e-01 0.000000e+00
9.422650e-02 7.600000e-01 0.000000e+00
9.433690e-02 6.621490e-01 0.000000e+00
9.422650e-02 7.600000e-01 0.000000e+00
1.257740e-01 6.622410e-01 0.000000e+00
1.256250e-01 7.600000e-01 0.000000e+00
1.257740e-01 6.622410e-01 0.000000e+00
1.256250e-01 7.600000e-01 0.000000e+00
1.572030e-01 6.623600e-01 0.000000e+00
1.570150e-01 7.600000e-01 0.000000e+00
1.572030e-01 6.623600e-01 0.000000e+00
1.570150e-01 7.600000e-01 0.000000e+00
1.886240e-01 6.625070e-01 0.000000e+00
1.883930e-01 7.600000e-01 0.000000e+00
1.886240e-01 6.625070e-01 0.000000e+00
1.883930e-01 7.600000e-01 0.000000e+00
2.200360e-01 6.626810e-01 0.000000e+00
2.197590e-01 7.600000e-01 0.000000e+00
2.200360e-01 6.626810e-01 0.000000e+00
2.197590e-01 7.600000e-01 0.000000e+00
2.514370e-01 6.628880e-01 0.000000e+00
2.511110e-01 7.600000e-01 0.000000e+00
2.514370e-01 6.628880e-01 0.000000e+00
2.511110e-01 7.600000e-01 0.000000e+00
2.828260e-01 6.631320e-01 0.000000e+00
2.824550e-01 7.600000e-01 0.000000e+00
2.828260e-01 6.631320e-01 0.000000e+00
2.824550e-01 7.600000e-01 0.000000e+00
3.141960e-01 6.634220e-01 0.000000e+00
3.138010e-01 7.600000e-01 0.000000e+00
3.141960e-01 6.634220e-01 0.000000e+00
3.138010e-01 7.600000e-01 0.000000e+00
3.455300e-01 6.637710e-01 0.000000e+00
3.451770e-01 7.600000e-01 0.000000e+00
3.455300e-01 6.637710e-01 0.000000e+00
3.451770e-01 7.600000e-01 0.000000e+00
3.767900e-01 6.641910e-01 0.000000e+00
3.766300e-01 7.600000e-01 0.000000e+00
3.767900e-01 6.641910e-01 0.000000e+00
3.766300e-01 7.600000e-01 0.000000e+00
4.078950e-01 6.646800e-01 0.000000e+00
4.082430e-01 7.600000e-01 0.000000e+00
4.078950e-01 6.646800e-01 0.000000e+00
4.082430e-01 7.600000e-01 0.000000e+00
4.387020e-01 6.651810e-01 0.000000e+00
4.401290e-01 7.600000e-01 0.000000e+00
4.387020e-01 6.651810e-01 0.000000e+00
4.401290e-01 7.600000e-01 0.000000e+00
4.690000e-01 6.655080e-01 0.000000e+00
4.724040e-01 7.600000e-01 0.000000e+00
4.690000e-01 6.655080e-01 0.000000e+00
4.724040e-01 7.600000e-01 0.000000e+00
4.986340e-01 6.652960e-01 0.000000e+00
5.050990e-01 7.600000e-01 0.000000e+00
4.986340e-01 6.652960e-01 0.000000e+00
5.050990e-01 7.600000e-01 0.000000e+00
5.276820e-01 6.640670e-01 0.000000e+00
5.380050e-01 7.586060e-01 0.000000e+00
5.276820e-01 6.640670e-01 0.000000e+00
5.380050e-01 7.586060e-01 0.000000e+00
5.559560e-01 6.614030e-01 0.000000e+00
5.711110e-01 7.548570e-01 0.000000e+00
5.559560e-01 6.614030e-01 0.000000e+00
5.711110e-01 7.548570e-01 0.000000e+00
5.835580e-01 6.569740e-01 0.000000e+00
6.042010e-01 7.488880e-01 0.000000e+00
5.835580e-01 6.569740e-01 0.000000e+00
6.042010e-01 7.488880e-01 0.000000e+00
6.105360e-01 6.506460e-01 0.000000e+00
6.369760e-01 7.405910e-01 0.000000e+00
6.105360e-01 6.506460e-01 0.000000e+00
6.369760e-01 7.405910e-01 0.000000e+00
6.368720e-01 6.423920e-01 0.000000e+00
6.691520e-01 7.299560e-01 0.000000e+00
6.368720e-01 6.423920e-01 0.000000e+00
6.691520e-01 7.299560e-01 0.000000e+00
6.625180e-01 6.322370e-01 0.000000e+00
7.004920e-01 7.170590e-01 0.000000e+00
6.625180e-01 6.322370e-01 0.000000e+00
7.004920e-01 7.170590e-01 0.000000e+00
6.874190e-01 6.202480e-01 0.000000e+00
7.308080e-01 7.020300e-01 0.000000e+00
6.874190e-01 6.202480e-01 0.000000e+00
7.308080e-01 7.020300e-01 0.000000e+00
7.115200e-01 6.065150e-01 0.000000e+00
7.599660e-01 6.850320e-01 0.000000e+00
7.115200e-01 6.065150e-01 0.000000e+00
7.599660e-01 6.850320e-01 0.000000e+00
7.347700e-01 5.911450e-01 0.000000e+00
7.878770e-01 6.662430e-01 0.000000e+00
7.347700e-01 5.911450e-01 0.000000e+00
7.878770e-01 6.662430e-01 0.000000e+00
7.571300e-01 5.742530e-01 0.000000e+00
8.144900e-01 6.458390e-01 0.000000e+00
7.571300e-01 5.742530e-01 0.000000e+00
8.144900e-01 6.458390e-01 0.000000e+00
7.785660e-01 5.559560e-01 0.000000e+00
8.397800e-01 6.239860e-01 0.000000e+00
7.785660e-01 5.559560e-01 0.000000e+00
8.397800e-01 6.239860e-01 0.000000e+00
7.990550e-01 5.363710e-01 0.000000e+00
8.637460e-01 6.008370e-01 0.000000e+00
7.990550e-01 5.363710e-01 0.000000e+00
8.637460e-01 6.008370e-01 0.000000e+00
8.185790e-01 5.156070e-01 0.000000e+00
8.863990e-01 5.765320e-01 0.000000e+00
8.185790e-01 5.156070e-01 0.000000e+00
8.863990e-01 5.765320e-01 0.000000e+00
8.371250e-01 4.937690e-01 0.000000e+00
9.077580e-01 5.511910e-01 0.000000e+00
8.371250e-01 4.937690e-01 0.000000e+00
9.077580e-01 5.511910e-01 0.000000e+00
8.546860e-01 4.709560e-01 0.000000e+00
9.278470e-01 5.249220e-01 0.000000e+00
8.546860e-01 4.709560e-01 0.000000e+00
9.278470e-01 5.249220e-01 0.000000e+00
8.712560e-01 4.472570e-01 0.000000e+00
9.466910e-01 4.978180e-01 0.000000e+00
8.712560e-01 4.472570e-01 0.000000e+00
9.466910e-01 4.978180e-01 0.000000e+00
8.868330e-01 4.227560e-01 0.000000e+00
9.643120e-01 4.699620e-01 0.000000e+00
8.868330e-01 4.227560e-01 0.000000e+00
9.643120e-01 4.699620e-01 0.000000e+00
9.014150e-01 3.975280e-01 0.000000e+00
9.807320e-01 4.414280e-01 0.000000e+00
9.014150e-01 3.975280e-01 0.000000e+00
9.807320e-01 4.414280e-01 0.000000e+00
9.150000e-01 3.716440e-01 0.000000e+00
9.959710e-01 4.122810e-01 0.000000e+00
9.150000e-01 3.716440e-01 0.000000e+00
9.959710e-01 4.122810e-01 0.000000e+00
9.275870e-01 3.451680e-01 0.000000e+00
1.010040e+00 3.825790e-01 0.000000e+00
9.275870e-01 3.451680e-01 0.000000e+00
1.010040e+00 3.825790e-01 0.000000e+00
9.391750e-01 3.181610e-01 0.000000e+00
1.022960e+00 3.523780e-01 0.000000e+00
9.391750e-01 3.181610e-01 0.000000e+00
1.022960e+00 3.523780e-01 0.000000e+00
9.497640e-01 2.906770e-01 0.000000e+00
1.034740e+00 3.217260e-01 0.000000e+00
9.497640e-01 2.906770e-01 0.000000e+00
1.034740e+00 3.217260e-01 0.000000e+00
9.593510e-01 2.627700e-01 0.000000e+00
1.045380e+00 2.906720e-01 0.000000e+00
9.593510e-01 2.627700e-01 0.000000e+00
1.045380e+00 2.906720e-01 0.000000e+00
9.679350e-01 2.344870e-01 0.000000e+00
1.054890e+00 2.592590e-01 0.000000e+00
9.679350e-01 2.344870e-01 0.000000e+00
1.054890e+00 2.592590e-01 0.000000e+00
9.755150e-01 2.058760e-01 0.000000e+00
1.063280e+00 2.275320e-01 0.000000e+00
9.755150e-01 2.058760e-01 0.000000e+00
1.063280e+00 2.275320e-01 0.000000e+00
9.820890e-01 1.769810e-01 0.000000e+00
1.070540e+00 1.955300e-01 0.000000e+00
9.820890e-01 1.769810e-01 0.000000e+00
1.070540e+00 1.955300e-01 0.000000e+00
9.876540e-01 1.478470e-01 0.000000e+00
1.076690e+00 1.632950e-01 0.000000e+00
9.876540e-01 1.478470e-01 0.000000e+00
1.076690e+00 1.632950e-01 0.000000e+00
9.922110e-01 1.185130e-01 0.000000e+00
1.081720e+00 1.308670e-01 0.000000e+00
9.922110e-01 1.185130e-01 0.000000e+00
1.081720e+00 1.308670e-01 0.000000e+00
9.957560e-01 8.902190e-02 0.000000e+00
1.085630e+00 9.828500e-02 0.000000e+00
9.957560e-01 8.902190e-02 0.000000e+00
1.085630e+00 9.828500e-02 0.000000e+00
9.982890e-01 5.941310e-02 0.000000e+00
1.088420e+00 6.558730e-02 0.000000e+00
9.982890e-01 5.941310e-02 0.000000e+00
1.088420e+00 6.558730e-02 0.000000e+00
9.998100e-01 2.972600e-02 0.000000e+00
1.090100e+00 3.281280e-02 0.000000e+00
9.998100e-01 2.972600e-02 0.000000e+00
1.090100e+00 3.281280e-02 0.000000e+00
1.000320e+00 4.898140e-12 0.000000e+00
1.090660e+00 5.340500e-12 0.000000e+00
</DataArray>
</Points>
<Cells>
<DataArray type="Int32" Name="connectivity" format="ascii">
0 1 3 2
4 5 7 6
8 9 11 10
12 13 15 14
16 17 19 18
20 21 23 22
24 25 27 26
28 29 31 30
32 33 35 34
36 37 39 38
40 41 43 42
44 45 47 46
48 49 51 50
52 53 55 54
56 57 59 58
60 61 63 62
64 65 67 66
68 69 71 70
72 73 75 74
76 77 79 78
80 81 83 82
84 85 87 86
88 89 91 90
92 93 95 94
96 97 99 98
100 101 103 102
104 105 107 106
108 109 111 110
112 113 115 114
116 117 119 118
120 121 123 122
124 125 127 126
128 129 131 130
132 133 135 134
136 137 139 138
140 141 143 142
144 145 147 146
148 149 151 150
152 153 155 154
156 157 159 158
160 161 163 162
164 165 167 166
168 169 171 170
172 173 175 174
176 177 179 178
180 181 183 182
184 185 187 186
188 189 191 190
</DataArray>
<DataArray type="Int32" Name="offsets" format="ascii">
4
8
12
16
20
24
28
32
36
40
44
48
52
56
60
64
68
72
76
80
84
88
92
96
100
104
108
112
116
120
124
128
132
136
140
144
148
152
156
160
164
168
172
176
180
184
188
192
</DataArray>
<DataArray type="UInt8" Name="types" format="ascii">
9
9
9
9
9
9
9
9
9
9
9
9
9
9
9
9
9
9
9
9
9
9
9
9
9
9
9
9
9
9
9
9
9
9
9
9
9
9
9
9
9
9
9
9
9
9
9
9
</DataArray>
</Cells>
<PointData>
<DataArray type="Float32" Name="V1" format="ascii">
9.732800e-01
-1.079850e+00
9.748350e-01
-1.078300e+00
9.750450e-01
-1.078070e+00
9.786800e-01
-1.074430e+00
9.789610e-01
-1.074220e+00
9.853520e-01
-1.067820e+00
9.856100e-01
-1.067740e+00
9.947050e-01
-1.058650e+00
9.950480e-01
-1.058730e+00
1.006820e+00
-1.046960e+00
1.007380e+00
-1.047290e+00
1.021760e+00
-1.032910e+00
1.022710e+00
-1.033630e+00
1.039580e+00
-1.016770e+00
1.041120e+00
-1.018050e+00
1.060170e+00
-9.989980e-01
1.062390e+00
-1.000890e+00
1.083020e+00
-9.802500e-01
1.085540e+00
-9.823660e-01
1.106740e+00
-9.611720e-01
1.107900e+00
-9.619380e-01
1.128120e+00
-9.417180e-01
1.123370e+00
-9.368690e-01
1.140920e+00
-9.193150e-01
1.119840e+00
-8.992590e-01
1.134370e+00
-8.847230e-01
1.076300e+00
-8.307020e-01
1.093130e+00
-8.138760e-01
9.627380e-01
-6.943040e-01
1.002560e+00
-6.544850e-01
7.455330e-01
-4.176890e-01
8.535770e-01
-3.096450e-01
4.978620e-01
5.982950e-02
5.939740e-01
1.559420e-01
3.520720e-01
3.665090e-01
3.951910e-01
4.096270e-01
2.364680e-01
5.552440e-01
2.780550e-01
5.968310e-01
1.696790e-01
6.971300e-01
2.125270e-01
7.399790e-01
1.449980e-01
8.024270e-01
1.874720e-01
8.449020e-01
1.519460e-01
8.777000e-01
1.926280e-01
9.183830e-01
1.813720e-01
9.287530e-01
2.193270e-01
9.667080e-01
2.257090e-01
9.607970e-01
2.603820e-01
9.954700e-01
2.788840e-01
9.783620e-01
3.100190e-01
1.009500e+00
3.362110e-01
9.852710e-01
3.637740e-01
1.012830e+00
3.942280e-01
9.846490e-01
4.183460e-01
1.008770e+00
4.505070e-01
9.789780e-01
4.714090e-01
9.998800e-01
5.034580e-01
9.701710e-01
5.214300e-01
9.881430e-01
5.521410e-01
9.596530e-01
5.674940e-01
9.750060e-01
5.960980e-01
9.484520e-01
6.091430e-01
9.614970e-01
6.352170e-01
9.372760e-01
6.462510e-01
9.483100e-01
6.696200e-01
9.265890e-01
6.789190e-01
9.358880e-01
6.995790e-01
9.166760e-01
7.073890e-01
9.244860e-01
7.254490e-01
9.076840e-01
7.319910e-01
9.142260e-01
7.476270e-01
8.996730e-01
7.530910e-01
9.051370e-01
7.665160e-01
8.926390e-01
7.710660e-01
8.971890e-01
7.825030e-01
8.865390e-01
7.862810e-01
8.903170e-01
7.959520e-01
8.813090e-01
7.990770e-01
8.844340e-01
8.071900e-01
8.768750e-01
8.097610e-01
8.794460e-01
8.165070e-01
8.731610e-01
8.186070e-01
8.752610e-01
8.241550e-01
8.700920e-01
8.258530e-01
8.717900e-01
8.303480e-01
8.676010e-01
8.317000e-01
8.689530e-01
8.352640e-01
8.656310e-01
8.363140e-01
8.666810e-01
8.390490e-01
8.641310e-01
8.398320e-01
8.649140e-01
8.418150e-01
8.630650e-01
8.423570e-01
8.636060e-01
8.436470e-01
8.624030e-01
8.439650e-01
8.627210e-01
8.446010e-01
8.621280e-01
8.447060e-01
8.622330e-01
</DataArray>
<DataArray type="Float32" Name="V2" format="ascii">
6.620300e-01
7.600000e-01
6.627170e-01
7.606210e-01
6.627170e-01
7.606210e-01
6.647780e-01
7.624810e-01
6.647780e-01
7.624810e-01
6.682070e-01
7.655760e-01
6.682070e-01
7.655760e-01
6.729920e-01
7.698950e-01
6.729920e-01
7.698950e-01
6.791210e-01
7.754260e-01
6.791210e-01
7.754260e-01
6.865750e-01
7.821500e-01
6.865750e-01
7.821500e-01
6.953350e-01
7.900480e-01
6.953350e-01
7.900480e-01
7.053770e-01
7.990960e-01
7.053770e-01
7.990960e-01
7.166770e-01
8.092670e-01
7.166770e-01
8.092670e-01
7.292090e-01
8.205350e-01
7.292090e-01
8.205350e-01
7.429400e-01
8.328770e-01
7.429400e-01
8.328770e-01
7.578240e-01
8.462780e-01
7.578240e-01
8.462780e-01
7.737740e-01
8.607410e-01
7.737740e-01
8.607410e-01
7.906150e-01
8.762870e-01
7.906150e-01
8.762870e-01
8.080110e-01
8.929500e-01
8.080110e-01
8.929500e-01
8.254800e-01
9.107290e-01
8.254800e-01
9.107290e-01
8.425790e-01
9.283130e-01
8.425790e-01
9.283130e-01
8.588090e-01
9.449330e-01
8.588090e-01
9.449330e-01
8.739290e-01
9.606650e-01
8.739290e-01
9.606650e-01
8.878630e-01
9.753160e-01
8.878630e-01
9.753160e-01
9.006030e-01
9.887690e-01
9.006030e-01
9.887690e-01
9.121690e-01
1.000980e+00
9.121690e-01
1.000980e+00
9.226110e-01
1.011960e+00
9.226110e-01
1.011960e+00
9.319910e-01
1.021770e+00
9.319910e-01
1.021770e+00
9.403840e-01
1.030480e+00
9.403840e-01
1.030480e+00
9.478720e-01
1.038200e+00
9.478720e-01
1.038200e+00
9.545350e-01
1.045010e+00
9.545350e-01
1.045010e+00
9.604550e-01
1.051020e+00
9.604550e-01
1.051020e+00
9.657080e-01
1.056320e+00
9.657080e-01
1.056320e+00
9.703670e-01
1.061000e+00
9.703670e-01
1.061000e+00
9.744980e-01
1.065120e+00
9.744980e-01
1.065120e+00
9.781590e-01
1.068770e+00
9.781590e-01
1.068770e+00
9.814030e-01
1.071990e+00
9.814030e-01
1.071990e+00
9.842770e-01
1.074830e+00
9.842770e-01
1.074830e+00
9.868200e-01
1.077340e+00
9.868200e-01
1.077340e+00
9.890690e-01
1.079560e+00
9.890690e-01
1.079560e+00
9.910520e-01
1.081520e+00
9.910520e-01
1.081520e+00
9.927950e-01
1.083240e+00
9.927950e-01
1.083240e+00
9.943200e-01
1.084740e+00
9.943200e-01
1.084740e+00
9.956430e-01
1.086050e+00
9.956430e-01
1.086050e+00
9.967810e-01
1.087170e+00
9.967810e-01
1.087170e+00
9.977460e-01
1.088120e+00
9.977460e-01
1.088120e+00
9.985460e-01
1.088910e+00
9.985460e-01
1.088910e+00
9.991910e-01
1.089550e+00
9.991910e-01
1.089550e+00
9.996870e-01
1.090040e+00
9.996870e-01
1.090040e+00
1.000040e+00
1.090380e+00
1.000040e+00
1.090380e+00
1.000250e+00
1.090590e+00
1.000250e+00
1.090590e+00
1.000320e+00
1.090660e+00
</DataArray>
<DataArray type="Float32" Name="V3" format="ascii">
0.000000e+00
0.000000e+00
9.769940e-03
6.528410e-03
9.769940e-03
6.528410e-03
1.945760e-02
1.298040e-02
1.945760e-02
1.298040e-02
2.898070e-02
1.927980e-02
2.898070e-02
1.927980e-02
3.825780e-02
2.535040e-02
3.825780e-02
2.535040e-02
4.720800e-02
3.111690e-02
4.720800e-02
3.111690e-02
5.575130e-02
3.650460e-02
5.575130e-02
3.650460e-02
6.380880e-02
4.144000e-02
6.380880e-02
4.144000e-02
7.130170e-02
4.585260e-02
7.130170e-02
4.585260e-02
7.815070e-02
4.967630e-02
7.815070e-02
4.967630e-02
8.427160e-02
5.285400e-02
8.427160e-02
5.285400e-02
8.957050e-02
5.534270e-02
8.957050e-02
5.534270e-02
9.393370e-02
5.712130e-02
9.393370e-02
5.712130e-02
9.721910e-02
5.819650e-02
9.721910e-02
5.819650e-02
9.925790e-02
5.860020e-02
9.925790e-02
5.860020e-02
9.990230e-02
5.836200e-02
9.990230e-02
5.836200e-02
9.918160e-02
5.742890e-02
9.918160e-02
5.742890e-02
9.743630e-02
5.627980e-02
9.743630e-02
5.627980e-02
9.480450e-02
5.548500e-02
9.480450e-02
5.548500e-02
9.167040e-02
5.491250e-02
9.167040e-02
5.491250e-02
8.828260e-02
5.450380e-02
8.828260e-02
5.450380e-02
8.477970e-02
5.418230e-02
8.477970e-02
5.418230e-02
8.124460e-02
5.386790e-02
8.124460e-02
5.386790e-02
7.772590e-02
5.348840e-02
7.772590e-02
5.348840e-02
7.424950e-02
5.298630e-02
7.424950e-02
5.298630e-02
7.082780e-02
5.231980e-02
7.082780e-02
5.231980e-02
6.746420e-02
5.146300e-02
6.746420e-02
5.146300e-02
6.415720e-02
5.040320e-02
6.415720e-02
5.040320e-02
6.090260e-02
4.913860e-02
6.090260e-02
4.913860e-02
5.769470e-02
4.767530e-02
5.769470e-02
4.767530e-02
5.452750e-02
4.602480e-02
5.452750e-02
4.602480e-02
5.139520e-02
4.420170e-02
5.139520e-02
4.420170e-02
4.829210e-02
4.222240e-02
4.829210e-02
4.222240e-02
4.521310e-02
4.010370e-02
4.521310e-02
4.010370e-02
4.215360e-02
3.786190e-02
4.215360e-02
3.786190e-02
3.910980e-02
3.551240e-02
3.910980e-02
3.551240e-02
3.607810e-02
3.306950e-02
3.607810e-02
3.306950e-02
3.305580e-02
3.054590e-02
3.305580e-02
3.054590e-02
3.004050e-02
2.795330e-02
3.004050e-02
2.795330e-02
2.703020e-02
2.530180e-02
2.703020e-02
2.530180e-02
2.402330e-02
2.260060e-02
2.402330e-02
2.260060e-02
2.101860e-02
1.985750e-02
2.101860e-02
1.985750e-02
1.801530e-02
1.707980e-02
1.801530e-02
1.707980e-02
1.501270e-02
1.427370e-02
1.501270e-02
1.427370e-02
1.201030e-02
1.144490e-02
1.201030e-02
1.144490e-02
9.007890e-03
8.598560e-03
9.007890e-03
8.598560e-03
6.005380e-03
5.739350e-03
6.005380e-03
5.739350e-03
3.002730e-03
2.871750e-03
3.002730e-03
2.871750e-03
0.000000e+00
0.000000e+00
</DataArray>
<DataArray type="Float32" Name="V4" format="ascii">
9.000000e-01
1.000000e+00
9.000000e-01
1.000000e+00
9.000000e-01
1.000000e+00
9.000000e-01
1.000000e+00
9.000000e-01
1.000000e+00
9.000000e-01
1.000000e+00
9.000000e-01
1.000000e+00
9.000000e-01
1.000000e+00
9.000000e-01
1.000000e+00
9.000000e-01
1.000000e+00
9.000000e-01
1.000000e+00
9.000000e-01
1.000000e+00
9.000000e-01
1.000000e+00
9.000000e-01
1.000000e+00
9.000000e-01
1.000000e+00
9.000000e-01
1.000000e+00
9.000000e-01
1.000000e+00
9.000000e-01
1.000000e+00
9.000000e-01
1.000000e+00
9.000000e-01
1.000000e+00
9.000000e-01
1.000000e+00
9.000000e-01
1.000000e+00
9.000000e-01
1.000000e+00
9.000000e-01
1.000000e+00
9.000000e-01
1.000000e+00
9.000000e-01
1.000000e+00
9.000000e-01
1.000000e+00
9.000000e-01
1.000000e+00
9.000000e-01
1.000000e+00
9.000000e-01
1.000000e+00
9.000000e-01
1.000000e+00
9.000000e-01
1.000000e+00
9.000000e-01
1.000000e+00
9.000000e-01
1.000000e+00
9.000000e-01
1.000000e+00
9.000000e-01
1.000000e+00
9.000000e-01
1.000000e+00
9.000000e-01
1.000000e+00
9.000000e-01
1.000000e+00
9.000000e-01
1.000000e+00
9.000000e-01
1.000000e+00
9.000000e-01
1.000000e+00
9.000000e-01
1.000000e+00
9.000000e-01
1.000000e+00
9.000000e-01
1.000000e+00
9.000000e-01
1.000000e+00
9.000000e-01
1.000000e+00
9.000000e-01
1.000000e+00
9.000000e-01
1.000000e+00
9.000000e-01
1.000000e+00
9.000000e-01
1.000000e+00
9.000000e-01
1.000000e+00
9.000000e-01
1.000000e+00
9.000000e-01
1.000000e+00
9.000000e-01
1.000000e+00
9.000000e-01
1.000000e+00
9.000000e-01
1.000000e+00
9.000000e-01
1.000000e+00
9.000000e-01
1.000000e+00
9.000000e-01
1.000000e+00
9.000000e-01
1.000000e+00
9.000000e-01
1.000000e+00
9.000000e-01
1.000000e+00
9.000000e-01
1.000000e+00
9.000000e-01
1.000000e+00
9.000000e-01
1.000000e+00
9.000000e-01
1.000000e+00
9.000000e-01
1.000000e+00
9.000000e-01
1.000000e+00
9.000000e-01
1.000000e+00
9.000000e-01
1.000000e+00
9.000000e-01
1.000000e+00
9.000000e-01
1.000000e+00
9.000000e-01
1.000000e+00
9.000000e-01
1.000000e+00
9.000000e-01
1.000000e+00
9.000000e-01
1.000000e+00
9.000000e-01
1.000000e+00
9.000000e-01
1.000000e+00
9.000000e-01
1.000000e+00
9.000000e-01
1.000000e+00
9.000000e-01
1.000000e+00
9.000000e-01
1.000000e+00
9.000000e-01
1.000000e+00
9.000000e-01
1.000000e+00
9.000000e-01
1.000000e+00
9.000000e-01
1.000000e+00
9.000000e-01
1.000000e+00
9.000000e-01
1.000000e+00
9.000000e-01
1.000000e+00
9.000000e-01
1.000000e+00
9.000000e-01
1.000000e+00
9.000000e-01
1.000000e+00
9.000000e-01
1.000000e+00
9.000000e-01
1.000000e+00
9.000000e-01
1.000000e+00
</DataArray>
<DataArray type="Float32" Name="V5" format="ascii">
0.000000e+00
0.000000e+00
3.272490e-02
3.272490e-02
3.272490e-02
3.272490e-02
6.544980e-02
6.544980e-02
6.544980e-02
6.544980e-02
9.817480e-02
9.817480e-02
9.817480e-02
9.817480e-02
1.309000e-01
1.309000e-01
1.309000e-01
1.309000e-01
1.636250e-01
1.636250e-01
1.636250e-01
1.636250e-01
1.963500e-01
1.963500e-01
1.963500e-01
1.963500e-01
2.290740e-01
2.290740e-01
2.290740e-01
2.290740e-01
2.617990e-01
2.617990e-01
2.617990e-01
2.617990e-01
2.945240e-01
2.945240e-01
2.945240e-01
2.945240e-01
3.272490e-01
3.272490e-01
3.272490e-01
3.272490e-01
3.599740e-01
3.599740e-01
3.599740e-01
3.599740e-01
3.926990e-01
3.926990e-01
3.926990e-01
3.926990e-01
4.254240e-01
4.254240e-01
4.254240e-01
4.254240e-01
4.581490e-01
4.581490e-01
4.581490e-01
4.581490e-01
4.908740e-01
4.908740e-01
4.908740e-01
4.908740e-01
5.235990e-01
5.235990e-01
5.235990e-01
5.235990e-01
5.563240e-01
5.563240e-01
5.563240e-01
5.563240e-01
5.890490e-01
5.890490e-01
5.890490e-01
5.890490e-01
6.217740e-01
6.217740e-01
6.217740e-01
6.217740e-01
6.544980e-01
6.544980e-01
6.544980e-01
6.544980e-01
6.872230e-01
6.872230e-01
6.872230e-01
6.872230e-01
7.199480e-01
7.199480e-01
7.199480e-01
7.199480e-01
7.526730e-01
7.526730e-01
7.526730e-01
7.526730e-01
7.853980e-01
7.853980e-01
7.853980e-01
7.853980e-01
8.181230e-01
8.181230e-01
8.181230e-01
8.181230e-01
8.508480e-01
8.508480e-01
8.508480e-01
8.508480e-01
8.835730e-01
8.835730e-01
8.835730e-01
8.835730e-01
9.162980e-01
9.162980e-01
9.162980e-01
9.162980e-01
9.490230e-01
9.490230e-01
9.490230e-01
9.490230e-01
9.817480e-01
9.817480e-01
9.817480e-01
9.817480e-01
1.014470e+00
1.014470e+00
1.014470e+00
1.014470e+00
1.047200e+00
1.047200e+00
1.047200e+00
1.047200e+00
1.079920e+00
1.079920e+00
1.079920e+00
1.079920e+00
1.112650e+00
1.112650e+00
1.112650e+00
1.112650e+00
1.145370e+00
1.145370e+00
1.145370e+00
1.145370e+00
1.178100e+00
1.178100e+00
1.178100e+00
1.178100e+00
1.210820e+00
1.210820e+00
1.210820e+00
1.210820e+00
1.243550e+00
1.243550e+00
1.243550e+00
1.243550e+00
1.276270e+00
1.276270e+00
1.276270e+00
1.276270e+00
1.309000e+00
1.309000e+00
1.309000e+00
1.309000e+00
1.341720e+00
1.341720e+00
1.341720e+00
1.341720e+00
1.374450e+00
1.374450e+00
1.374450e+00
1.374450e+00
1.407170e+00
1.407170e+00
1.407170e+00
1.407170e+00
1.439900e+00
1.439900e+00
1.439900e+00
1.439900e+00
1.472620e+00
1.472620e+00
1.472620e+00
1.472620e+00
1.505350e+00
1.505350e+00
1.505350e+00
1.505350e+00
1.538070e+00
1.538070e+00
1.538070e+00
1.538070e+00
1.570800e+00
1.570800e+00
</DataArray>
</PointData>
</Piece></UnstructuredGrid>
</VTKFile>
