<?xml version="1.0"?>
<VTKFile type="UnstructuredGrid" version="0.1" byte_order="LittleEndian" compressor="vtkZLibDataCompressor">
<UnstructuredGrid>
<Piece NumberOfPoints="192" NumberOfCells="48">
<Points>
<DataArray type="Float32" NumberOfComponents="3" format="ascii">
0.000000e+00 6.065510e-01 0.000000e+00
0.000000e+00 7.000000e-01 0.000000e+00
3.219760e-02 6.065640e-01 0.000000e+00
3.216380e-02 7.000000e-01 0.000000e+00
3.219760e-02 6.065640e-01 0.000000e+00
3.216380e-02 7.000000e-01 0.000000e+00
6.439330e-02 6.066040e-01 0.000000e+00
6.432590e-02 7.000000e-01 0.000000e+00
6.439330e-02 6.066040e-01 0.000000e+00
6.432590e-02 7.000000e-01 0.000000e+00
9.658550e-02 6.066700e-01 0.000000e+00
9.648440e-02 7.000000e-01 0.000000e+00
9.658550e-02 6.066700e-01 0.000000e+00
9.648440e-02 7.000000e-01 0.000000e+00
1.287720e-01 6.067620e-01 0.000000e+00
1.286380e-01 7.000000e-01 0.000000e+00
1.287720e-01 6.067620e-01 0.000000e+00
1.286380e-01 7.000000e-01 0.000000e+00
1.609520e-01 6.068810e-01 0.000000e+00
1.607830e-01 7.000000e-01 0.000000e+00
1.609520e-01 6.068810e-01 0.000000e+00
1.607830e-01 7.000000e-01 0.000000e+00
1.931230e-01 6.070250e-01 0.000000e+00
1.929200e-01 7.000000e-01 0.000000e+00
1.931230e-01 6.070250e-01 0.000000e+00
1.929200e-01 7.000000e-01 0.000000e+00
2.252820e-01 6.071960e-01 0.000000e+00
2.250440e-01 7.000000e-01 0.000000e+00
2.252820e-01 6.071960e-01 0.000000e+00
2.250440e-01 7.000000e-01 0.000000e+00
2.574300e-01 6.073940e-01 0.000000e+00
2.571560e-01 7.000000e-01 0.000000e+00
2.574300e-01 6.073940e-01 0.000000e+00
2.571560e-01 7.000000e-01 0.000000e+00
2.895650e-01 6.076180e-01 0.000000e+00
2.892530e-01 7.000000e-01 0.000000e+00
2.895650e-01 6.076180e-01 0.000000e+00
2.892530e-01 7.000000e-01 0.000000e+00
3.216870e-01 6.078700e-01 0.000000e+00
3.213330e-01 7.000000e-01 0.000000e+00
3.216870e-01 6.078700e-01 0.000000e+00
3.213330e-01 7.000000e-01 0.000000e+00
3.537930e-01 6.081540e-01 0.000000e+00
3.533970e-01 7.000000e-01 0.000000e+00
3.537930e-01 6.081540e-01 0.000000e+00
3.533970e-01 7.000000e-01 0.000000e+00
3.858830e-01 6.084740e-01 0.000000e+00
3.854500e-01 7.000000e-01 0.000000e+00
3.858830e-01 6.084740e-01 0.000000e+00
3.854500e-01 7.000000e-01 0.000000e+00
4.179490e-01 6.088390e-01 0.000000e+00
4.175040e-01 7.000000e-01 0.000000e+00
4.179490e-01 6.088390e-01 0.000000e+00
4.175040e-01 7.000000e-01 0.000000e+00
4.499710e-01 6.092610e-01 0.000000e+00
4.495900e-01 7.000000e-01 0.000000e+00
4.499710e-01 6.092610e-01 0.000000e+00
4.495900e-01 7.000000e-01 0.000000e+00
4.819040e-01 6.097510e-01 0.000000e+00
4.817640e-01 7.000000e-01 0.000000e+00
4.819040e-01 6.097510e-01 0.000000e+00
4.817640e-01 7.000000e-01 0.000000e+00
5.136530e-01 6.102950e-01 0.000000e+00
5.141180e-01 7.000000e-01 0.000000e+00
5.136530e-01 6.102950e-01 0.000000e+00
5.141180e-01 7.000000e-01 0.000000e+00
5.450430e-01 6.108120e-01 0.000000e+00
5.467770e-01 7.000000e-01 0.000000e+00
5.450430e-01 6.108120e-01 0.000000e+00
5.467770e-01 7.000000e-01 0.000000e+00
5.758270e-01 6.110550e-01 0.000000e+00
5.798530e-01 7.000000e-01 0.000000e+00
5.758270e-01 6.110550e-01 0.000000e+00
5.798530e-01 7.000000e-01 0.000000e+00
6.058960e-01 6.106000e-01 0.000000e+00
6.132910e-01 6.999530e-01 0.000000e+00
6.058960e-01 6.106000e-01 0.000000e+00
6.132910e-01 6.999530e-01 0.000000e+00
6.352910e-01 6.088300e-01 0.000000e+00
6.468160e-01 6.976740e-01 0.000000e+00
6.352910e-01 6.088300e-01 0.000000e+00
6.468160e-01 6.976740e-01 0.000000e+00
6.638460e-01 6.053710e-01 0.000000e+00
6.804660e-01 6.928900e-01 0.000000e+00
6.638460e-01 6.053710e-01 0.000000e+00
6.804660e-01 6.928900e-01 0.000000e+00
6.917070e-01 5.999110e-01 0.000000e+00
7.139350e-01 6.856310e-01 0.000000e+00
6.917070e-01 5.999110e-01 0.000000e+00
7.139350e-01 6.856310e-01 0.000000e+00
7.189010e-01 5.923810e-01 0.000000e+00
7.468920e-01 6.758650e-01 0.000000e+00
7.189010e-01 5.923810e-01 0.000000e+00
7.468920e-01 6.758650e-01 0.000000e+00
7.453930e-01 5.828020e-01 0.000000e+00
7.790500e-01 6.636540e-01 0.000000e+00
7.453930e-01 5.828020e-01 0.000000e+00
7.790500e-01 6.636540e-01 0.000000e+00
7.711210e-01 5.712400e-01 0.000000e+00
8.101850e-01 6.491300e-01 0.000000e+00
7.711210e-01 5.712400e-01 0.000000e+00
8.101850e-01 6.491300e-01 0.000000e+00
7.960190e-01 5.577940e-01 0.000000e+00
8.401330e-01 6.324660e-01 0.000000e+00
7.960190e-01 5.577940e-01 0.000000e+00
8.401330e-01 6.324660e-01 0.000000e+00
8.200240e-01 5.425780e-01 0.000000e+00
8.687830e-01 6.138520e-01 0.000000e+00
8.200240e-01 5.425780e-01 0.000000e+00
8.687830e-01 6.138520e-01 0.000000e+00
8.430810e-01 5.257170e-01 0.000000e+00
8.960690e-01 5.934760e-01 0.000000e+00
8.430810e-01 5.257170e-01 0.000000e+00
8.960690e-01 5.934760e-01 0.000000e+00
8.651410e-01 5.073400e-01 0.000000e+00
9.219520e-01 5.715170e-01 0.000000e+00
8.651410e-01 5.073400e-01 0.000000e+00
9.219520e-01 5.715170e-01 0.000000e+00
8.861690e-01 4.875690e-01 0.000000e+00
9.464180e-01 5.481400e-01 0.000000e+00
8.861690e-01 4.875690e-01 0.000000e+00
9.464180e-01 5.481400e-01 0.000000e+00
9.061330e-01 4.665290e-01 0.000000e+00
9.694670e-01 5.234970e-01 0.000000e+00
9.061330e-01 4.665290e-01 0.000000e+00
9.694670e-01 5.234970e-01 0.000000e+00
9.250170e-01 4.443250e-01 0.000000e+00
9.911140e-01 4.977100e-01 0.000000e+00
9.250170e-01 4.443250e-01 0.000000e+00
9.911140e-01 4.977100e-01 0.000000e+00
9.427940e-01 4.210770e-01 0.000000e+00
1.011360e+00 4.709110e-01 0.000000e+00
9.427940e-01 4.210770e-01 0.000000e+00
1.011360e+00 4.709110e-01 0.000000e+00
9.594610e-01 3.968680e-01 0.000000e+00
1.030240e+00 4.431890e-01 0.000000e+00
9.594610e-01 3.968680e-01 0.000000e+00
1.030240e+00 4.431890e-01 0.000000e+00
9.749990e-01 3.718060e-01 0.000000e+00
1.047750e+00 4.146540e-01 0.000000e+00
9.749990e-01 3.718060e-01 0.000000e+00
1.047750e+00 4.146540e-01 0.000000e+00
9.894090e-01 3.459600e-01 0.000000e+00
1.063920e+00 3.853720e-01 0.000000e+00
9.894090e-01 3.459600e-01 0.000000e+00
1.063920e+00 3.853720e-01 0.000000e+00
1.002680e+00 3.194250e-01 0.000000e+00
1.078760e+00 3.554390e-01 0.000000e+00
1.002680e+00 3.194250e-01 0.000000e+00
1.078760e+00 3.554390e-01 0.000000e+00
1.014810e+00 2.922580e-01 0.000000e+00
1.092280e+00 3.249050e-01 0.000000e+00
1.014810e+00 2.922580e-01 0.000000e+00
1.092280e+00 3.249050e-01 0.000000e+00
1.025790e+00 2.645450e-01 0.000000e+00
1.104480e+00 2.938560e-01 0.000000e+00
1.025790e+00 2.645450e-01 0.000000e+00
1.104480e+00 2.938560e-01 0.000000e+00
1.035630e+00 2.363350e-01 0.000000e+00
1.115390e+00 2.623320e-01 0.000000e+00
1.035630e+00 2.363350e-01 0.000000e+00
1.115390e+00 2.623320e-01 0.000000e+00
1.044310e+00 2.077060e-01 0.000000e+00
1.125000e+00 2.304120e-01 0.000000e+00
1.044310e+00 2.077060e-01 0.000000e+00
1.125000e+00 2.304120e-01 0.000000e+00
1.051840e+00 1.786990e-01 0.000000e+00
1.133320e+00 1.981310e-01 0.000000e+00
1.051840e+00 1.786990e-01 0.000000e+00
1.133320e+00 1.981310e-01 0.000000e+00
1.058210e+00 1.493880e-01 0.000000e+00
1.140350e+00 1.655620e-01 0.000000e+00
1.058210e+00 1.493880e-01 0.000000e+00
1.140350e+00 1.655620e-01 0.000000e+00
1.063430e+00 1.198120e-01 0.000000e+00
1.146100e+00 1.327370e-01 0.000000e+00
1.063430e+00 1.198120e-01 0.000000e+00
1.146100e+00 1.327370e-01 0.000000e+00
1.067490e+00 9.003970e-02 0.000000e+00
1.150570e+00 9.972690e-02 0.000000e+00
1.067490e+00 9.003970e-02 0.000000e+00
1.150570e+00 9.972690e-02 0.000000e+00
1.070390e+00 6.010630e-02 0.000000e+00
1.153770e+00 6.656050e-02 0.000000e+00
1.070390e+00 6.010630e-02 0.000000e+00
1.153770e+00 6.656050e-02 0.000000e+00
1.072130e+00 3.008100e-02 0.000000e+00
1.155680e+00 3.330740e-02 0.000000e+00
1.072130e+00 3.008100e-02 0.000000e+00
1.155680e+00 3.330740e-02 0.000000e+00
1.072710e+00 -3.940290e-06 0.000000e+00
1.156320e+00 -4.247410e-06 0.000000e+00
</DataArray>
</Points>
<Cells>
<DataArray type="Int32" Name="connectivity" format="ascii">
0 1 3 2
4 5 7 6
8 9 11 10
12 13 15 14
16 17 19 18
20 21 23 22
24 25 27 26
28 29 31 30
32 33 35 34
36 37 39 38
40 41 43 42
44 45 47 46
48 49 51 50
52 53 55 54
56 57 59 58
60 61 63 62
64 65 67 66
68 69 71 70
72 73 75 74
76 77 79 78
80 81 83 82
84 85 87 86
88 89 91 90
92 93 95 94
96 97 99 98
100 101 103 102
104 105 107 106
108 109 111 110
112 113 115 114
116 117 119 118
120 121 123 122
124 125 127 126
128 129 131 130
132 133 135 134
136 137 139 138
140 141 143 142
144 145 147 146
148 149 151 150
152 153 155 154
156 157 159 158
160 161 163 162
164 165 167 166
168 169 171 170
172 173 175 174
176 177 179 178
180 181 183 182
184 185 187 186
188 189 191 190
</DataArray>
<DataArray type="Int32" Name="offsets" format="ascii">
4
8
12
16
20
24
28
32
36
40
44
48
52
56
60
64
68
72
76
80
84
88
92
96
100
104
108
112
116
120
124
128
132
136
140
144
148
152
156
160
164
168
172
176
180
184
188
192
</DataArray>
<DataArray type="UInt8" Name="types" format="ascii">
9
9
9
9
9
9
9
9
9
9
9
9
9
9
9
9
9
9
9
9
9
9
9
9
9
9
9
9
9
9
9
9
9
9
9
9
9
9
9
9
9
9
9
9
9
9
9
9
</DataArray>
</Cells>
<PointData>
<DataArray type="Float32" Name="V1" format="ascii">
1.254490e+00
-8.035900e-01
1.256100e+00
-8.019780e-01
1.256340e+00
-8.017760e-01
1.260120e+00
-7.980020e-01
1.260450e+00
-7.978300e-01
1.267070e+00
-7.912060e-01
1.267360e+00
-7.911540e-01
1.276780e+00
-7.817330e-01
1.277080e+00
-7.817730e-01
1.289290e+00
-7.695650e-01
1.289630e+00
-7.696980e-01
1.304630e+00
-7.546990e-01
1.305050e+00
-7.549480e-01
1.322850e+00
-7.371510e-01
1.323430e+00
-7.375720e-01
1.344030e+00
-7.169750e-01
1.344870e+00
-7.176620e-01
1.368230e+00
-6.942990e-01
1.369500e+00
-6.953870e-01
1.395520e+00
-6.693680e-01
1.397380e+00
-6.709990e-01
1.425790e+00
-6.425930e-01
1.428260e+00
-6.447660e-01
1.458500e+00
-6.145250e-01
1.461040e+00
-6.167000e-01
1.492150e+00
-5.855950e-01
1.492630e+00
-5.857750e-01
1.523180e+00
-5.552310e-01
1.515870e+00
-5.480900e-01
1.544440e+00
-5.195200e-01
1.516240e+00
-4.930980e-01
1.543380e+00
-4.659650e-01
1.468330e+00
-3.968510e-01
1.502030e+00
-3.631540e-01
1.336080e+00
-2.121930e-01
1.404130e+00
-1.441480e-01
1.080760e+00
1.568300e-01
1.231740e+00
3.078050e-01
8.565150e-01
6.901410e-01
9.466190e-01
7.802450e-01
7.319870e-01
9.653540e-01
7.857270e-01
1.019090e+00
6.508110e-01
1.142580e+00
7.040600e-01
1.195820e+00
6.225960e-01
1.271100e+00
6.765170e-01
1.325020e+00
6.340050e-01
1.364310e+00
6.868520e-01
1.417150e+00
6.721490e-01
1.430730e+00
7.226360e-01
1.481220e+00
7.270610e-01
1.477130e+00
7.744060e-01
1.524470e+00
7.913010e-01
1.508860e+00
8.350890e-01
1.552640e+00
8.594820e-01
1.530100e+00
8.995530e-01
1.570170e+00
9.278340e-01
1.544010e+00
9.642090e-01
1.580390e+00
9.938530e-01
1.552960e+00
1.026670e+00
1.585780e+00
1.055980e+00
1.558640e+00
1.085450e+00
1.588100e+00
1.113360e+00
1.562260e+00
1.139720e+00
1.588620e+00
1.165590e+00
1.564640e+00
1.189090e+00
1.588130e+00
1.212630e+00
1.566320e+00
1.233530e+00
1.587210e+00
1.254630e+00
1.567650e+00
1.273160e+00
1.586180e+00
1.291860e+00
1.568830e+00
1.308240e+00
1.585210e+00
1.324660e+00
1.569980e+00
1.339090e+00
1.584410e+00
1.353380e+00
1.571140e+00
1.366030e+00
1.583790e+00
1.378390e+00
1.572330e+00
1.389410e+00
1.583360e+00
1.400000e+00
1.573540e+00
1.409540e+00
1.583080e+00
1.418530e+00
1.574740e+00
1.426700e+00
1.582910e+00
1.434230e+00
1.575920e+00
1.441130e+00
1.582810e+00
1.447350e+00
1.577040e+00
1.453050e+00
1.582740e+00
1.458070e+00
1.578090e+00
1.462650e+00
1.582670e+00
1.466550e+00
1.579040e+00
1.470060e+00
1.582550e+00
1.472930e+00
1.579890e+00
1.475410e+00
1.582370e+00
1.477290e+00
1.580620e+00
1.478760e+00
1.582100e+00
1.479700e+00
1.581230e+00
1.480190e+00
1.581720e+00
</DataArray>
<DataArray type="Float32" Name="V2" format="ascii">
6.065510e-01
7.000000e-01
6.072930e-01
7.006780e-01
6.072930e-01
7.006780e-01
6.095160e-01
7.027080e-01
6.095160e-01
7.027080e-01
6.132150e-01
7.060860e-01
6.132150e-01
7.060860e-01
6.183790e-01
7.108020e-01
6.183790e-01
7.108020e-01
6.249930e-01
7.168410e-01
6.249930e-01
7.168410e-01
6.330380e-01
7.241870e-01
6.330380e-01
7.241870e-01
6.424910e-01
7.328160e-01
6.424910e-01
7.328160e-01
6.533250e-01
7.427050e-01
6.533250e-01
7.427050e-01
6.655100e-01
7.538240e-01
6.655100e-01
7.538240e-01
6.790130e-01
7.661400e-01
6.790130e-01
7.661400e-01
6.937980e-01
7.796180e-01
6.937980e-01
7.796180e-01
7.098270e-01
7.942210e-01
7.098270e-01
7.942210e-01
7.270600e-01
8.099120e-01
7.270600e-01
8.099120e-01
7.454470e-01
8.266600e-01
7.454470e-01
8.266600e-01
7.649200e-01
8.444470e-01
7.649200e-01
8.444470e-01
7.853570e-01
8.632770e-01
7.853570e-01
8.632770e-01
8.065230e-01
8.831770e-01
8.065230e-01
8.831770e-01
8.279860e-01
9.041780e-01
8.279860e-01
9.041780e-01
8.492450e-01
9.261820e-01
8.492450e-01
9.261820e-01
8.697580e-01
9.472590e-01
8.697580e-01
9.472590e-01
8.890980e-01
9.672940e-01
8.890980e-01
9.672940e-01
9.071110e-01
9.862150e-01
9.071110e-01
9.862150e-01
9.237930e-01
1.003860e+00
9.237930e-01
1.003860e+00
9.391750e-01
1.020150e+00
9.391750e-01
1.020150e+00
9.533090e-01
1.035070e+00
9.533090e-01
1.035070e+00
9.662580e-01
1.048660e+00
9.662580e-01
1.048660e+00
9.780950e-01
1.061000e+00
9.780950e-01
1.061000e+00
9.888970e-01
1.072180e+00
9.888970e-01
1.072180e+00
9.987410e-01
1.082300e+00
9.987410e-01
1.082300e+00
1.007700e+00
1.091450e+00
1.007700e+00
1.091450e+00
1.015850e+00
1.099720e+00
1.015850e+00
1.099720e+00
1.023250e+00
1.107180e+00
1.023250e+00
1.107180e+00
1.029960e+00
1.113930e+00
1.029960e+00
1.113930e+00
1.036040e+00
1.120010e+00
1.036040e+00
1.120010e+00
1.041540e+00
1.125490e+00
1.041540e+00
1.125490e+00
1.046490e+00
1.130410e+00
1.046490e+00
1.130410e+00
1.050930e+00
1.134820e+00
1.050930e+00
1.134820e+00
1.054900e+00
1.138750e+00
1.054900e+00
1.138750e+00
1.058410e+00
1.142220e+00
1.058410e+00
1.142220e+00
1.061510e+00
1.145280e+00
1.061510e+00
1.145280e+00
1.064190e+00
1.147930e+00
1.064190e+00
1.147930e+00
1.066490e+00
1.150190e+00
1.066490e+00
1.150190e+00
1.068410e+00
1.152090e+00
1.068410e+00
1.152090e+00
1.069970e+00
1.153620e+00
1.069970e+00
1.153620e+00
1.071180e+00
1.154810e+00
1.071180e+00
1.154810e+00
1.072030e+00
1.155650e+00
1.072030e+00
1.155650e+00
1.072540e+00
1.156150e+00
1.072540e+00
1.156150e+00
1.072710e+00
1.156320e+00
</DataArray>
<DataArray type="Float32" Name="V3" format="ascii">
0.000000e+00
0.000000e+00
1.233410e-02
9.243290e-03
1.233410e-02
9.243290e-03
2.458170e-02
1.840600e-02
2.458170e-02
1.840600e-02
3.665640e-02
2.740780e-02
3.665640e-02
2.740780e-02
4.847230e-02
3.616860e-02
4.847230e-02
3.616860e-02
5.994390e-02
4.460880e-02
5.994390e-02
4.460880e-02
7.098680e-02
5.264950e-02
7.098680e-02
5.264950e-02
8.151710e-02
6.021240e-02
8.151710e-02
6.021240e-02
9.145340e-02
6.722080e-02
9.145340e-02
6.722080e-02
1.007150e-01
7.359880e-02
1.007150e-01
7.359880e-02
1.092210e-01
7.927270e-02
1.092210e-01
7.927270e-02
1.168950e-01
8.417180e-02
1.168950e-01
8.417180e-02
1.236570e-01
8.823100e-02
1.236570e-01
8.823100e-02
1.294220e-01
9.139480e-02
1.294220e-01
9.139480e-02
1.340970e-01
9.362320e-02
1.340970e-01
9.362320e-02
1.375670e-01
9.490030e-02
1.375670e-01
9.490030e-02
1.396890e-01
9.523950e-02
1.396890e-01
9.523950e-02
1.403010e-01
9.467670e-02
1.403010e-01
9.467670e-02
1.392990e-01
9.323060e-02
1.392990e-01
9.323060e-02
1.368400e-01
9.080400e-02
1.368400e-01
9.080400e-02
1.333780e-01
8.843660e-02
1.333780e-01
8.843660e-02
1.291170e-01
8.644350e-02
1.291170e-01
8.644350e-02
1.245040e-01
8.469720e-02
1.245040e-01
8.469720e-02
1.197530e-01
8.311350e-02
1.197530e-01
8.311350e-02
1.149690e-01
8.159760e-02
1.149690e-01
8.159760e-02
1.102050e-01
8.005970e-02
1.102050e-01
8.005970e-02
1.054810e-01
7.842480e-02
1.054810e-01
7.842480e-02
1.008000e-01
7.663650e-02
1.008000e-01
7.663650e-02
9.615510e-02
7.465600e-02
9.615510e-02
7.465600e-02
9.153600e-02
7.246050e-02
9.153600e-02
7.246050e-02
8.692990e-02
7.003960e-02
8.692990e-02
7.003960e-02
8.232500e-02
6.739280e-02
8.232500e-02
6.739280e-02
7.770910e-02
6.452530e-02
7.770910e-02
6.452530e-02
7.307600e-02
6.144930e-02
7.307600e-02
6.144930e-02
6.841600e-02
5.817650e-02
6.841600e-02
5.817650e-02
6.372690e-02
5.472380e-02
6.372690e-02
5.472380e-02
5.900260e-02
5.110480e-02
5.900260e-02
5.110480e-02
5.424430e-02
4.733740e-02
5.424430e-02
4.733740e-02
4.944870e-02
4.343460e-02
4.944870e-02
4.343460e-02
4.461920e-02
3.941370e-02
4.461920e-02
3.941370e-02
3.975450e-02
3.528650e-02
3.975450e-02
3.528650e-02
3.485990e-02
3.106900e-02
3.485990e-02
3.106900e-02
2.993520e-02
2.677160e-02
2.993520e-02
2.677160e-02
2.498680e-02
2.240920e-02
2.498680e-02
2.240920e-02
2.001530e-02
1.799110e-02
2.001530e-02
1.799110e-02
1.502780e-02
1.353120e-02
1.502780e-02
1.353120e-02
1.002550e-02
9.037970e-03
1.002550e-02
9.037970e-03
5.015770e-03
4.524950e-03
5.015770e-03
4.524950e-03
0.000000e+00
0.000000e+00
</DataArray>
<DataArray type="Float32" Name="V4" format="ascii">
9.000000e-01
1.000000e+00
9.000000e-01
1.000000e+00
9.000000e-01
1.000000e+00
9.000000e-01
1.000000e+00
9.000000e-01
1.000000e+00
9.000000e-01
1.000000e+00
9.000000e-01
1.000000e+00
9.000000e-01
1.000000e+00
9.000000e-01
1.000000e+00
9.000000e-01
1.000000e+00
9.000000e-01
1.000000e+00
9.000000e-01
1.000000e+00
9.000000e-01
1.000000e+00
9.000000e-01
1.000000e+00
9.000000e-01
1.000000e+00
9.000000e-01
1.000000e+00
9.000000e-01
1.000000e+00
9.000000e-01
1.000000e+00
9.000000e-01
1.000000e+00
9.000000e-01
1.000000e+00
9.000000e-01
1.000000e+00
9.000000e-01
1.000000e+00
9.000000e-01
1.000000e+00
9.000000e-01
1.000000e+00
9.000000e-01
1.000000e+00
9.000000e-01
1.000000e+00
9.000000e-01
1.000000e+00
9.000000e-01
1.000000e+00
9.000000e-01
1.000000e+00
9.000000e-01
1.000000e+00
9.000000e-01
1.000000e+00
9.000000e-01
1.000000e+00
9.000000e-01
1.000000e+00
9.000000e-01
1.000000e+00
9.000000e-01
1.000000e+00
9.000000e-01
1.000000e+00
9.000000e-01
1.000000e+00
9.000000e-01
1.000000e+00
9.000000e-01
1.000000e+00
9.000000e-01
1.000000e+00
9.000000e-01
1.000000e+00
9.000000e-01
1.000000e+00
9.000000e-01
1.000000e+00
9.000000e-01
1.000000e+00
9.000000e-01
1.000000e+00
9.000000e-01
1.000000e+00
9.000000e-01
1.000000e+00
9.000000e-01
1.000000e+00
9.000000e-01
1.000000e+00
9.000000e-01
1.000000e+00
9.000000e-01
1.000000e+00
9.000000e-01
1.000000e+00
9.000000e-01
1.000000e+00
9.000000e-01
1.000000e+00
9.000000e-01
1.000000e+00
9.000000e-01
1.000000e+00
9.000000e-01
1.000000e+00
9.000000e-01
1.000000e+00
9.000000e-01
1.000000e+00
9.000000e-01
1.000000e+00
9.000000e-01
1.000000e+00
9.000000e-01
1.000000e+00
9.000000e-01
1.000000e+00
9.000000e-01
1.000000e+00
9.000000e-01
1.000000e+00
9.000000e-01
1.000000e+00
9.000000e-01
1.000000e+00
9.000000e-01
1.000000e+00
9.000000e-01
1.000000e+00
9.000000e-01
1.000000e+00
9.000000e-01
1.000000e+00
9.000000e-01
1.000000e+00
9.000000e-01
1.000000e+00
9.000000e-01
1.000000e+00
9.000000e-01
1.000000e+00
9.000000e-01
1.000000e+00
9.000000e-01
1.000000e+00
9.000000e-01
1.000000e+00
9.000000e-01
1.000000e+00
9.000000e-01
1.000000e+00
9.000000e-01
1.000000e+00
9.000000e-01
1.000000e+00
9.000000e-01
1.000000e+00
9.000000e-01
1.000000e+00
9.000000e-01
1.000000e+00
9.000000e-01
1.000000e+00
9.000000e-01
1.000000e+00
9.000000e-01
1.000000e+00
9.000000e-01
1.000000e+00
9.000000e-01
1.000000e+00
9.000000e-01
1.000000e+00
9.000000e-01
1.000000e+00
9.000000e-01
1.000000e+00
9.000000e-01
1.000000e+00
9.000000e-01
1.000000e+00
9.000000e-01
1.000000e+00
</DataArray>
<DataArray type="Float32" Name="V5" format="ascii">
0.000000e+00
0.000000e+00
3.272490e-02
3.272490e-02
3.272490e-02
3.272490e-02
6.544980e-02
6.544980e-02
6.544980e-02
6.544980e-02
9.817480e-02
9.817480e-02
9.817480e-02
9.817480e-02
1.309000e-01
1.309000e-01
1.309000e-01
1.309000e-01
1.636250e-01
1.636250e-01
1.636250e-01
1.636250e-01
1.963500e-01
1.963500e-01
1.963500e-01
1.963500e-01
2.290740e-01
2.290740e-01
2.290740e-01
2.290740e-01
2.617990e-01
2.617990e-01
2.617990e-01
2.617990e-01
2.945240e-01
2.945240e-01
2.945240e-01
2.945240e-01
3.272490e-01
3.272490e-01
3.272490e-01
3.272490e-01
3.599740e-01
3.599740e-01
3.599740e-01
3.599740e-01
3.926990e-01
3.926990e-01
3.926990e-01
3.926990e-01
4.254240e-01
4.254240e-01
4.254240e-01
4.254240e-01
4.581490e-01
4.581490e-01
4.581490e-01
4.581490e-01
4.908740e-01
4.908740e-01
4.908740e-01
4.908740e-01
5.235990e-01
5.235990e-01
5.235990e-01
5.235990e-01
5.563240e-01
5.563240e-01
5.563240e-01
5.563240e-01
5.890490e-01
5.890490e-01
5.890490e-01
5.890490e-01
6.217740e-01
6.217740e-01
6.217740e-01
6.217740e-01
6.544980e-01
6.544980e-01
6.544980e-01
6.544980e-01
6.872230e-01
6.872230e-01
6.872230e-01
6.872230e-01
7.199480e-01
7.199480e-01
7.199480e-01
7.199480e-01
7.526730e-01
7.526730e-01
7.526730e-01
7.526730e-01
7.853980e-01
7.853980e-01
7.853980e-01
7.853980e-01
8.181230e-01
8.181230e-01
8.181230e-01
8.181230e-01
8.508480e-01
8.508480e-01
8.508480e-01
8.508480e-01
8.835730e-01
8.835730e-01
8.835730e-01
8.835730e-01
9.162980e-01
9.162980e-01
9.162980e-01
9.162980e-01
9.490230e-01
9.490230e-01
9.490230e-01
9.490230e-01
9.817480e-01
9.817480e-01
9.817480e-01
9.817480e-01
1.014470e+00
1.014470e+00
1.014470e+00
1.014470e+00
1.047200e+00
1.047200e+00
1.047200e+00
1.047200e+00
1.079920e+00
1.079920e+00
1.079920e+00
1.079920e+00
1.112650e+00
1.112650e+00
1.112650e+00
1.112650e+00
1.145370e+00
1.145370e+00
1.145370e+00
1.145370e+00
1.178100e+00
1.178100e+00
1.178100e+00
1.178100e+00
1.210820e+00
1.210820e+00
1.210820e+00
1.210820e+00
1.243550e+00
1.243550e+00
1.243550e+00
1.243550e+00
1.276270e+00
1.276270e+00
1.276270e+00
1.276270e+00
1.309000e+00
1.309000e+00
1.309000e+00
1.309000e+00
1.341720e+00
1.341720e+00
1.341720e+00
1.341720e+00
1.374450e+00
1.374450e+00
1.374450e+00
1.374450e+00
1.407170e+00
1.407170e+00
1.407170e+00
1.407170e+00
1.439900e+00
1.439900e+00
1.439900e+00
1.439900e+00
1.472620e+00
1.472620e+00
1.472620e+00
1.472620e+00
1.505350e+00
1.505350e+00
1.505350e+00
1.505350e+00
1.538070e+00
1.538070e+00
1.538070e+00
1.538070e+00
1.570800e+00
1.570800e+00
</DataArray>
</PointData>
</Piece></UnstructuredGrid>
</VTKFile>
