<?xml version="1.0"?>
<VTKFile type="UnstructuredGrid" version="0.1" byte_order="LittleEndian" compressor="vtkZLibDataCompressor">
<UnstructuredGrid>
<Piece NumberOfPoints="192" NumberOfCells="48">
<Points>
<DataArray type="Float32" NumberOfComponents="3" format="ascii">
0.000000e+00 8.704520e-01 0.000000e+00
0.000000e+00 9.700000e-01 0.000000e+00
3.043380e-02 8.704130e-01 0.000000e+00
3.179330e-02 9.700000e-01 0.000000e+00
3.043380e-02 8.704130e-01 0.000000e+00
3.179330e-02 9.700000e-01 0.000000e+00
6.067660e-02 8.702050e-01 0.000000e+00
6.368400e-02 9.700000e-01 0.000000e+00
6.067660e-02 8.702050e-01 0.000000e+00
6.368400e-02 9.700000e-01 0.000000e+00
9.065120e-02 8.696220e-01 0.000000e+00
9.570250e-02 9.700000e-01 0.000000e+00
9.065120e-02 8.696220e-01 0.000000e+00
9.570250e-02 9.700000e-01 0.000000e+00
1.203960e-01 8.684000e-01 0.000000e+00
1.277890e-01 9.688990e-01 0.000000e+00
1.203960e-01 8.684000e-01 0.000000e+00
1.277890e-01 9.688990e-01 0.000000e+00
1.497920e-01 8.663700e-01 0.000000e+00
1.600110e-01 9.665540e-01 0.000000e+00
1.497920e-01 8.663700e-01 0.000000e+00
1.600110e-01 9.665540e-01 0.000000e+00
1.789220e-01 8.633700e-01 0.000000e+00
1.922900e-01 9.630840e-01 0.000000e+00
1.789220e-01 8.633700e-01 0.000000e+00
1.922900e-01 9.630840e-01 0.000000e+00
2.078140e-01 8.593410e-01 0.000000e+00
2.245370e-01 9.584490e-01 0.000000e+00
2.078140e-01 8.593410e-01 0.000000e+00
2.245370e-01 9.584490e-01 0.000000e+00
2.364640e-01 8.542560e-01 0.000000e+00
2.566700e-01 9.526160e-01 0.000000e+00
2.364640e-01 8.542560e-01 0.000000e+00
2.566700e-01 9.526160e-01 0.000000e+00
2.648550e-01 8.480970e-01 0.000000e+00
2.886130e-01 9.455680e-01 0.000000e+00
2.648550e-01 8.480970e-01 0.000000e+00
2.886130e-01 9.455680e-01 0.000000e+00
2.929630e-01 8.408600e-01 0.000000e+00
3.202970e-01 9.373010e-01 0.000000e+00
2.929630e-01 8.408600e-01 0.000000e+00
3.202970e-01 9.373010e-01 0.000000e+00
3.207590e-01 8.325470e-01 0.000000e+00
3.516620e-01 9.278220e-01 0.000000e+00
3.207590e-01 8.325470e-01 0.000000e+00
3.516620e-01 9.278220e-01 0.000000e+00
3.482130e-01 8.231660e-01 0.000000e+00
3.826510e-01 9.171470e-01 0.000000e+00
3.482130e-01 8.231660e-01 0.000000e+00
3.826510e-01 9.171470e-01 0.000000e+00
3.752950e-01 8.127340e-01 0.000000e+00
4.132130e-01 9.052980e-01 0.000000e+00
3.752950e-01 8.127340e-01 0.000000e+00
4.132130e-01 9.052980e-01 0.000000e+00
4.019740e-01 8.012690e-01 0.000000e+00
4.433030e-01 8.923020e-01 0.000000e+00
4.019740e-01 8.012690e-01 0.000000e+00
4.433030e-01 8.923020e-01 0.000000e+00
4.282190e-01 7.887940e-01 0.000000e+00
4.728780e-01 8.781880e-01 0.000000e+00
4.282190e-01 7.887940e-01 0.000000e+00
4.728780e-01 8.781880e-01 0.000000e+00
4.540010e-01 7.753350e-01 0.000000e+00
5.019010e-01 8.629880e-01 0.000000e+00
4.540010e-01 7.753350e-01 0.000000e+00
5.019010e-01 8.629880e-01 0.000000e+00
4.792900e-01 7.609180e-01 0.000000e+00
5.303370e-01 8.467380e-01 0.000000e+00
4.792900e-01 7.609180e-01 0.000000e+00
5.303370e-01 8.467380e-01 0.000000e+00
5.040590e-01 7.455720e-01 0.000000e+00
5.581550e-01 8.294700e-01 0.000000e+00
5.040590e-01 7.455720e-01 0.000000e+00
5.581550e-01 8.294700e-01 0.000000e+00
5.282810e-01 7.293270e-01 0.000000e+00
5.853270e-01 8.112190e-01 0.000000e+00
5.282810e-01 7.293270e-01 0.000000e+00
5.853270e-01 8.112190e-01 0.000000e+00
5.519290e-01 7.122110e-01 0.000000e+00
6.118250e-01 7.920200e-01 0.000000e+00
5.519290e-01 7.122110e-01 0.000000e+00
6.118250e-01 7.920200e-01 0.000000e+00
5.749800e-01 6.942560e-01 0.000000e+00
6.376250e-01 7.719080e-01 0.000000e+00
5.749800e-01 6.942560e-01 0.000000e+00
6.376250e-01 7.719080e-01 0.000000e+00
5.974090e-01 6.754910e-01 0.000000e+00
6.627030e-01 7.509140e-01 0.000000e+00
5.974090e-01 6.754910e-01 0.000000e+00
6.627030e-01 7.509140e-01 0.000000e+00
6.191930e-01 6.559470e-01 0.000000e+00
6.870370e-01 7.290740e-01 0.000000e+00
6.191930e-01 6.559470e-01 0.000000e+00
6.870370e-01 7.290740e-01 0.000000e+00
6.403100e-01 6.356530e-01 0.000000e+00
7.106060e-01 7.064180e-01 0.000000e+00
6.403100e-01 6.356530e-01 0.000000e+00
7.106060e-01 7.064180e-01 0.000000e+00
6.607390e-01 6.146380e-01 0.000000e+00
7.333900e-01 6.829790e-01 0.000000e+00
6.607390e-01 6.146380e-01 0.000000e+00
7.333900e-01 6.829790e-01 0.000000e+00
6.804600e-01 5.929330e-01 0.000000e+00
7.553680e-01 6.587890e-01 0.000000e+00
6.804600e-01 5.929330e-01 0.000000e+00
7.553680e-01 6.587890e-01 0.000000e+00
6.994520e-01 5.705670e-01 0.000000e+00
7.765220e-01 6.338780e-01 0.000000e+00
6.994520e-01 5.705670e-01 0.000000e+00
7.765220e-01 6.338780e-01 0.000000e+00
7.176960e-01 5.475680e-01 0.000000e+00
7.968320e-01 6.082780e-01 0.000000e+00
7.176960e-01 5.475680e-01 0.000000e+00
7.968320e-01 6.082780e-01 0.000000e+00
7.351750e-01 5.239670e-01 0.000000e+00
8.162820e-01 5.820190e-01 0.000000e+00
7.351750e-01 5.239670e-01 0.000000e+00
8.162820e-01 5.820190e-01 0.000000e+00
7.518700e-01 4.997910e-01 0.000000e+00
8.348520e-01 5.551320e-01 0.000000e+00
7.518700e-01 4.997910e-01 0.000000e+00
8.348520e-01 5.551320e-01 0.000000e+00
7.677650e-01 4.750700e-01 0.000000e+00
8.525270e-01 5.276490e-01 0.000000e+00
7.677650e-01 4.750700e-01 0.000000e+00
8.525270e-01 5.276490e-01 0.000000e+00
7.828440e-01 4.498320e-01 0.000000e+00
8.692890e-01 4.995980e-01 0.000000e+00
7.828440e-01 4.498320e-01 0.000000e+00
8.692890e-01 4.995980e-01 0.000000e+00
7.970900e-01 4.241070e-01 0.000000e+00
8.851230e-01 4.710130e-01 0.000000e+00
7.970900e-01 4.241070e-01 0.000000e+00
8.851230e-01 4.710130e-01 0.000000e+00
8.104890e-01 3.979240e-01 0.000000e+00
9.000130e-01 4.419240e-01 0.000000e+00
8.104890e-01 3.979240e-01 0.000000e+00
9.000130e-01 4.419240e-01 0.000000e+00
8.230280e-01 3.713130e-01 0.000000e+00
9.139450e-01 4.123620e-01 0.000000e+00
8.230280e-01 3.713130e-01 0.000000e+00
9.139450e-01 4.123620e-01 0.000000e+00
8.346920e-01 3.443010e-01 0.000000e+00
9.269040e-01 3.823590e-01 0.000000e+00
8.346920e-01 3.443010e-01 0.000000e+00
9.269040e-01 3.823590e-01 0.000000e+00
8.454700e-01 3.169200e-01 0.000000e+00
9.388770e-01 3.519490e-01 0.000000e+00
8.454700e-01 3.169200e-01 0.000000e+00
9.388770e-01 3.519490e-01 0.000000e+00
8.553510e-01 2.891990e-01 0.000000e+00
9.498530e-01 3.211620e-01 0.000000e+00
8.553510e-01 2.891990e-01 0.000000e+00
9.498530e-01 3.211620e-01 0.000000e+00
8.643230e-01 2.611680e-01 0.000000e+00
9.598190e-01 2.900320e-01 0.000000e+00
8.643230e-01 2.611680e-01 0.000000e+00
9.598190e-01 2.900320e-01 0.000000e+00
8.723770e-01 2.328580e-01 0.000000e+00
9.687650e-01 2.585930e-01 0.000000e+00
8.723770e-01 2.328580e-01 0.000000e+00
9.687650e-01 2.585930e-01 0.000000e+00
8.795040e-01 2.042980e-01 0.000000e+00
9.766810e-01 2.268770e-01 0.000000e+00
8.795040e-01 2.042980e-01 0.000000e+00
9.766810e-01 2.268770e-01 0.000000e+00
8.856970e-01 1.755200e-01 0.000000e+00
9.835600e-01 1.949180e-01 0.000000e+00
8.856970e-01 1.755200e-01 0.000000e+00
9.835600e-01 1.949180e-01 0.000000e+00
8.909490e-01 1.465540e-01 0.000000e+00
9.893930e-01 1.627510e-01 0.000000e+00
8.909490e-01 1.465540e-01 0.000000e+00
9.893930e-01 1.627510e-01 0.000000e+00
8.952540e-01 1.174320e-01 0.000000e+00
9.941750e-01 1.304110e-01 0.000000e+00
8.952540e-01 1.174320e-01 0.000000e+00
9.941750e-01 1.304110e-01 0.000000e+00
8.986070e-01 8.818380e-02 0.000000e+00
9.978990e-01 9.793030e-02 0.000000e+00
8.986070e-01 8.818380e-02 0.000000e+00
9.978990e-01 9.793030e-02 0.000000e+00
9.010050e-01 5.884160e-02 0.000000e+00
1.000560e+00 6.534510e-02 0.000000e+00
9.010050e-01 5.884160e-02 0.000000e+00
1.000560e+00 6.534510e-02 0.000000e+00
9.024440e-01 2.943650e-02 0.000000e+00
1.002160e+00 3.269010e-02 0.000000e+00
9.024440e-01 2.943650e-02 0.000000e+00
1.002160e+00 3.269010e-02 0.000000e+00
9.029250e-01 4.421250e-12 0.000000e+00
1.002690e+00 4.909780e-12 0.000000e+00
</DataArray>
</Points>
<Cells>
<DataArray type="Int32" Name="connectivity" format="ascii">
0 1 3 2
4 5 7 6
8 9 11 10
12 13 15 14
16 17 19 18
20 21 23 22
24 25 27 26
28 29 31 30
32 33 35 34
36 37 39 38
40 41 43 42
44 45 47 46
48 49 51 50
52 53 55 54
56 57 59 58
60 61 63 62
64 65 67 66
68 69 71 70
72 73 75 74
76 77 79 78
80 81 83 82
84 85 87 86
88 89 91 90
92 93 95 94
96 97 99 98
100 101 103 102
104 105 107 106
108 109 111 110
112 113 115 114
116 117 119 118
120 121 123 122
124 125 127 126
128 129 131 130
132 133 135 134
136 137 139 138
140 141 143 142
144 145 147 146
148 149 151 150
152 153 155 154
156 157 159 158
160 161 163 162
164 165 167 166
168 169 171 170
172 173 175 174
176 177 179 178
180 181 183 182
184 185 187 186
188 189 191 190
</DataArray>
<DataArray type="Int32" Name="offsets" format="ascii">
4
8
12
16
20
24
28
32
36
40
44
48
52
56
60
64
68
72
76
80
84
88
92
96
100
104
108
112
116
120
124
128
132
136
140
144
148
152
156
160
164
168
172
176
180
184
188
192
</DataArray>
<DataArray type="UInt8" Name="types" format="ascii">
9
9
9
9
9
9
9
9
9
9
9
9
9
9
9
9
9
9
9
9
9
9
9
9
9
9
9
9
9
9
9
9
9
9
9
9
9
9
9
9
9
9
9
9
9
9
9
9
</DataArray>
</Cells>
<PointData>
<DataArray type="Float32" Name="V1" format="ascii">
6.479960e-01
-1.037670e+00
6.551530e-01
-1.030520e+00
5.737050e-01
-9.571590e-01
6.006700e-01
-9.301940e-01
4.224000e-01
-7.640880e-01
4.954690e-01
-6.910190e-01
2.833860e-01
-4.687970e-01
3.199990e-01
-4.321840e-01
1.968130e-01
-3.255490e-01
2.047130e-01
-3.176490e-01
1.198590e-01
-2.387820e-01
1.269970e-01
-2.316450e-01
6.286630e-02
-1.714680e-01
7.082250e-02
-1.635110e-01
2.203220e-02
-1.177840e-01
3.024360e-02
-1.095720e-01
-6.666610e-03
-7.504690e-02
1.390090e-03
-6.699020e-02
-2.611990e-02
-4.129610e-02
-1.845360e-02
-3.362980e-02
-3.846720e-02
-1.495780e-02
-3.133390e-02
-7.824560e-03
-4.536970e-02
5.258780e-03
-3.885470e-02
1.177380e-02
-4.815080e-02
2.043190e-02
-4.229760e-02
2.628510e-02
-4.787480e-02
3.147430e-02
-4.269540e-02
3.665370e-02
-4.539830e-02
3.916360e-02
-4.088090e-02
4.368100e-02
-4.140720e-02
4.416270e-02
-3.752270e-02
4.804720e-02
-3.644510e-02
4.703480e-02
-3.315230e-02
5.032760e-02
-3.093730e-02
4.825570e-02
-2.818750e-02
5.100550e-02
-2.521050e-02
4.822390e-02
-2.295090e-02
5.048350e-02
-1.950990e-02
4.726990e-02
-1.768610e-02
4.909360e-02
-1.401360e-02
4.566460e-02
-1.257210e-02
4.710620e-02
-8.845840e-03
4.362730e-02
-7.734850e-03
4.473830e-02
-4.087080e-03
4.133270e-02
-3.258200e-03
4.216160e-02
2.163510e-04
3.891780e-02
8.077640e-04
3.950920e-02
4.044640e-03
3.648720e-02
4.439090e-03
3.688170e-02
7.398050e-03
3.411910e-02
7.631730e-03
3.435270e-02
1.029160e-02
3.186930e-02
1.039640e-02
3.197410e-02
1.275080e-02
2.977580e-02
1.275450e-02
2.977950e-02
1.480790e-02
2.786210e-02
1.473440e-02
2.778850e-02
1.649970e-02
2.614020e-02
1.636910e-02
2.600960e-02
1.786450e-02
2.461320e-02
1.769390e-02
2.444260e-02
1.894140e-02
2.327760e-02
1.874480e-02
2.308100e-02
1.976860e-02
2.212490e-02
1.955730e-02
2.191360e-02
2.038250e-02
2.114300e-02
2.016560e-02
2.092610e-02
2.081710e-02
2.031770e-02
2.060170e-02
2.010240e-02
2.110390e-02
1.963340e-02
2.089560e-02
1.942520e-02
2.127140e-02
1.907420e-02
2.107420e-02
1.887700e-02
2.134520e-02
1.862390e-02
2.116200e-02
1.844070e-02
2.134790e-02
1.826710e-02
2.118060e-02
1.809980e-02
2.129930e-02
1.798900e-02
2.114920e-02
1.783900e-02
2.121640e-02
1.777620e-02
2.108430e-02
1.764410e-02
2.111390e-02
1.761640e-02
2.099990e-02
1.750240e-02
2.100390e-02
1.749870e-02
2.090800e-02
1.740290e-02
2.089640e-02
1.741370e-02
2.081860e-02
1.733580e-02
2.079960e-02
1.735350e-02
2.073950e-02
1.729340e-02
2.071970e-02
1.731190e-02
2.067690e-02
1.726910e-02
2.066110e-02
1.728390e-02
2.063560e-02
1.725840e-02
2.062690e-02
1.726650e-02
2.061840e-02
1.725810e-02
</DataArray>
<DataArray type="Float32" Name="V2" format="ascii">
8.704520e-01
9.700000e-01
8.709430e-01
9.705210e-01
8.709430e-01
9.705210e-01
8.723100e-01
9.720880e-01
8.723100e-01
9.720880e-01
8.743190e-01
9.747100e-01
8.743190e-01
9.747100e-01
8.766860e-01
9.772900e-01
8.766860e-01
9.772900e-01
8.791990e-01
9.797090e-01
8.791990e-01
9.797090e-01
8.816870e-01
9.820930e-01
8.816870e-01
9.820930e-01
8.840820e-01
9.843990e-01
8.840820e-01
9.843990e-01
8.863490e-01
9.865880e-01
8.863490e-01
9.865880e-01
8.884620e-01
9.886320e-01
8.884620e-01
9.886320e-01
8.904060e-01
9.905150e-01
8.904060e-01
9.905150e-01
8.921730e-01
9.922270e-01
8.921730e-01
9.922270e-01
8.937620e-01
9.937680e-01
8.937620e-01
9.937680e-01
8.951770e-01
9.951390e-01
8.951770e-01
9.951390e-01
8.964250e-01
9.963490e-01
8.964250e-01
9.963490e-01
8.975160e-01
9.974050e-01
8.975160e-01
9.974050e-01
8.984600e-01
9.983200e-01
8.984600e-01
9.983200e-01
8.992710e-01
9.991050e-01
8.992710e-01
9.991050e-01
8.999610e-01
9.997730e-01
8.999610e-01
9.997730e-01
9.005430e-01
1.000340e+00
9.005430e-01
1.000340e+00
9.010290e-01
1.000810e+00
9.010290e-01
1.000810e+00
9.014310e-01
1.001200e+00
9.014310e-01
1.001200e+00
9.017600e-01
1.001520e+00
9.017600e-01
1.001520e+00
9.020280e-01
1.001780e+00
9.020280e-01
1.001780e+00
9.022420e-01
1.001990e+00
9.022420e-01
1.001990e+00
9.024120e-01
1.002150e+00
9.024120e-01
1.002150e+00
9.025450e-01
1.002290e+00
9.025450e-01
1.002290e+00
9.026470e-01
1.002390e+00
9.026470e-01
1.002390e+00
9.027250e-01
1.002470e+00
9.027250e-01
1.002470e+00
9.027840e-01
1.002520e+00
9.027840e-01
1.002520e+00
9.028260e-01
1.002570e+00
9.028260e-01
1.002570e+00
9.028570e-01
1.002600e+00
9.028570e-01
1.002600e+00
9.028790e-01
1.002630e+00
9.028790e-01
1.002630e+00
9.028930e-01
1.002640e+00
9.028930e-01
1.002640e+00
9.029030e-01
1.002660e+00
9.029030e-01
1.002660e+00
9.029090e-01
1.002660e+00
9.029090e-01
1.002660e+00
9.029130e-01
1.002670e+00
9.029130e-01
1.002670e+00
9.029160e-01
1.002670e+00
9.029160e-01
1.002670e+00
9.029170e-01
1.002680e+00
9.029170e-01
1.002680e+00
9.029190e-01
1.002680e+00
9.029190e-01
1.002680e+00
9.029190e-01
1.002680e+00
9.029190e-01
1.002680e+00
9.029200e-01
1.002690e+00
9.029200e-01
1.002690e+00
9.029210e-01
1.002690e+00
9.029210e-01
1.002690e+00
9.029220e-01
1.002690e+00
9.029220e-01
1.002690e+00
9.029230e-01
1.002690e+00
9.029230e-01
1.002690e+00
9.029240e-01
1.002690e+00
9.029240e-01
1.002690e+00
9.029240e-01
1.002690e+00
9.029240e-01
1.002690e+00
9.029240e-01
1.002690e+00
9.029240e-01
1.002690e+00
9.029250e-01
1.002690e+00
</DataArray>
<DataArray type="Float32" Name="V3" format="ascii">
0.000000e+00
0.000000e+00
1.938350e-03
3.876670e-05
1.938350e-03
3.876670e-05
3.632530e-03
1.065660e-04
3.632530e-03
1.065660e-04
4.976860e-03
1.650890e-04
4.976860e-03
1.650890e-04
6.017040e-03
2.290650e-04
6.017040e-03
2.290650e-04
6.663390e-03
4.261880e-04
6.663390e-03
4.261880e-04
7.048760e-03
7.065400e-04
7.048760e-03
7.065400e-04
7.249300e-03
1.030510e-03
7.249300e-03
1.030510e-03
7.309440e-03
1.368860e-03
7.309440e-03
1.368860e-03
7.261160e-03
1.701140e-03
7.261160e-03
1.701140e-03
7.129600e-03
2.013600e-03
7.129600e-03
2.013600e-03
6.935160e-03
2.297210e-03
6.935160e-03
2.297210e-03
6.694570e-03
2.546390e-03
6.694570e-03
2.546390e-03
6.421500e-03
2.758120e-03
6.421500e-03
2.758120e-03
6.127130e-03
2.931310e-03
6.127130e-03
2.931310e-03
5.820510e-03
3.066330e-03
5.820510e-03
3.066330e-03
5.508890e-03
3.164620e-03
5.508890e-03
3.164620e-03
5.197980e-03
3.228440e-03
5.197980e-03
3.228440e-03
4.892180e-03
3.260520e-03
4.892180e-03
3.260520e-03
4.594810e-03
3.263920e-03
4.594810e-03
3.263920e-03
4.308240e-03
3.241860e-03
4.308240e-03
3.241860e-03
4.034090e-03
3.197560e-03
4.034090e-03
3.197560e-03
3.773320e-03
3.134130e-03
3.773320e-03
3.134130e-03
3.526380e-03
3.054550e-03
3.526380e-03
3.054550e-03
3.293320e-03
2.961550e-03
3.293320e-03
2.961550e-03
3.073830e-03
2.857640e-03
3.073830e-03
2.857640e-03
2.867380e-03
2.745060e-03
2.867380e-03
2.745060e-03
2.673240e-03
2.625760e-03
2.673240e-03
2.625760e-03
2.490580e-03
2.501440e-03
2.490580e-03
2.501440e-03
2.318470e-03
2.373570e-03
2.318470e-03
2.373570e-03
2.155930e-03
2.243350e-03
2.155930e-03
2.243350e-03
2.002020e-03
2.111800e-03
2.002020e-03
2.111800e-03
1.855770e-03
1.979700e-03
1.855770e-03
1.979700e-03
1.716260e-03
1.847710e-03
1.716260e-03
1.847710e-03
1.582650e-03
1.716320e-03
1.582650e-03
1.716320e-03
1.454110e-03
1.585860e-03
1.454110e-03
1.585860e-03
1.329910e-03
1.456610e-03
1.329910e-03
1.456610e-03
1.209400e-03
1.328700e-03
1.209400e-03
1.328700e-03
1.091970e-03
1.202210e-03
1.091970e-03
1.202210e-03
9.770880e-04
1.077160e-03
9.770880e-04
1.077160e-03
8.643050e-04
9.535150e-04
8.643050e-04
9.535150e-04
7.532190e-04
8.311850e-04
7.532190e-04
8.311850e-04
6.434880e-04
7.100630e-04
6.434880e-04
7.100630e-04
5.348220e-04
5.900130e-04
5.348220e-04
5.900130e-04
4.269760e-04
4.708800e-04
4.269760e-04
4.708800e-04
3.197380e-04
3.524940e-04
3.197380e-04
3.524940e-04
2.129310e-04
2.346770e-04
2.129310e-04
2.346770e-04
1.063990e-04
1.172420e-04
1.063990e-04
1.172420e-04
0.000000e+00
0.000000e+00
</DataArray>
<DataArray type="Float32" Name="V4" format="ascii">
9.000000e-01
1.000000e+00
9.000000e-01
1.000000e+00
9.000000e-01
1.000000e+00
9.000000e-01
1.000000e+00
9.000000e-01
1.000000e+00
9.000000e-01
1.000000e+00
9.000000e-01
1.000000e+00
9.000000e-01
1.000000e+00
9.000000e-01
1.000000e+00
9.000000e-01
1.000000e+00
9.000000e-01
1.000000e+00
9.000000e-01
1.000000e+00
9.000000e-01
1.000000e+00
9.000000e-01
1.000000e+00
9.000000e-01
1.000000e+00
9.000000e-01
1.000000e+00
9.000000e-01
1.000000e+00
9.000000e-01
1.000000e+00
9.000000e-01
1.000000e+00
9.000000e-01
1.000000e+00
9.000000e-01
1.000000e+00
9.000000e-01
1.000000e+00
9.000000e-01
1.000000e+00
9.000000e-01
1.000000e+00
9.000000e-01
1.000000e+00
9.000000e-01
1.000000e+00
9.000000e-01
1.000000e+00
9.000000e-01
1.000000e+00
9.000000e-01
1.000000e+00
9.000000e-01
1.000000e+00
9.000000e-01
1.000000e+00
9.000000e-01
1.000000e+00
9.000000e-01
1.000000e+00
9.000000e-01
1.000000e+00
9.000000e-01
1.000000e+00
9.000000e-01
1.000000e+00
9.000000e-01
1.000000e+00
9.000000e-01
1.000000e+00
9.000000e-01
1.000000e+00
9.000000e-01
1.000000e+00
9.000000e-01
1.000000e+00
9.000000e-01
1.000000e+00
9.000000e-01
1.000000e+00
9.000000e-01
1.000000e+00
9.000000e-01
1.000000e+00
9.000000e-01
1.000000e+00
9.000000e-01
1.000000e+00
9.000000e-01
1.000000e+00
9.000000e-01
1.000000e+00
9.000000e-01
1.000000e+00
9.000000e-01
1.000000e+00
9.000000e-01
1.000000e+00
9.000000e-01
1.000000e+00
9.000000e-01
1.000000e+00
9.000000e-01
1.000000e+00
9.000000e-01
1.000000e+00
9.000000e-01
1.000000e+00
9.000000e-01
1.000000e+00
9.000000e-01
1.000000e+00
9.000000e-01
1.000000e+00
9.000000e-01
1.000000e+00
9.000000e-01
1.000000e+00
9.000000e-01
1.000000e+00
9.000000e-01
1.000000e+00
9.000000e-01
1.000000e+00
9.000000e-01
1.000000e+00
9.000000e-01
1.000000e+00
9.000000e-01
1.000000e+00
9.000000e-01
1.000000e+00
9.000000e-01
1.000000e+00
9.000000e-01
1.000000e+00
9.000000e-01
1.000000e+00
9.000000e-01
1.000000e+00
9.000000e-01
1.000000e+00
9.000000e-01
1.000000e+00
9.000000e-01
1.000000e+00
9.000000e-01
1.000000e+00
9.000000e-01
1.000000e+00
9.000000e-01
1.000000e+00
9.000000e-01
1.000000e+00
9.000000e-01
1.000000e+00
9.000000e-01
1.000000e+00
9.000000e-01
1.000000e+00
9.000000e-01
1.000000e+00
9.000000e-01
1.000000e+00
9.000000e-01
1.000000e+00
9.000000e-01
1.000000e+00
9.000000e-01
1.000000e+00
9.000000e-01
1.000000e+00
9.000000e-01
1.000000e+00
9.000000e-01
1.000000e+00
9.000000e-01
1.000000e+00
9.000000e-01
1.000000e+00
9.000000e-01
1.000000e+00
9.000000e-01
1.000000e+00
9.000000e-01
1.000000e+00
</DataArray>
<DataArray type="Float32" Name="V5" format="ascii">
0.000000e+00
0.000000e+00
3.272490e-02
3.272490e-02
3.272490e-02
3.272490e-02
6.544980e-02
6.544980e-02
6.544980e-02
6.544980e-02
9.817480e-02
9.817480e-02
9.817480e-02
9.817480e-02
1.309000e-01
1.309000e-01
1.309000e-01
1.309000e-01
1.636250e-01
1.636250e-01
1.636250e-01
1.636250e-01
1.963500e-01
1.963500e-01
1.963500e-01
1.963500e-01
2.290740e-01
2.290740e-01
2.290740e-01
2.290740e-01
2.617990e-01
2.617990e-01
2.617990e-01
2.617990e-01
2.945240e-01
2.945240e-01
2.945240e-01
2.945240e-01
3.272490e-01
3.272490e-01
3.272490e-01
3.272490e-01
3.599740e-01
3.599740e-01
3.599740e-01
3.599740e-01
3.926990e-01
3.926990e-01
3.926990e-01
3.926990e-01
4.254240e-01
4.254240e-01
4.254240e-01
4.254240e-01
4.581490e-01
4.581490e-01
4.581490e-01
4.581490e-01
4.908740e-01
4.908740e-01
4.908740e-01
4.908740e-01
5.235990e-01
5.235990e-01
5.235990e-01
5.235990e-01
5.563240e-01
5.563240e-01
5.563240e-01
5.563240e-01
5.890490e-01
5.890490e-01
5.890490e-01
5.890490e-01
6.217740e-01
6.217740e-01
6.217740e-01
6.217740e-01
6.544980e-01
6.544980e-01
6.544980e-01
6.544980e-01
6.872230e-01
6.872230e-01
6.872230e-01
6.872230e-01
7.199480e-01
7.199480e-01
7.199480e-01
7.199480e-01
7.526730e-01
7.526730e-01
7.526730e-01
7.526730e-01
7.853980e-01
7.853980e-01
7.853980e-01
7.853980e-01
8.181230e-01
8.181230e-01
8.181230e-01
8.181230e-01
8.508480e-01
8.508480e-01
8.508480e-01
8.508480e-01
8.835730e-01
8.835730e-01
8.835730e-01
8.835730e-01
9.162980e-01
9.162980e-01
9.162980e-01
9.162980e-01
9.490230e-01
9.490230e-01
9.490230e-01
9.490230e-01
9.817480e-01
9.817480e-01
9.817480e-01
9.817480e-01
1.014470e+00
1.014470e+00
1.014470e+00
1.014470e+00
1.047200e+00
1.047200e+00
1.047200e+00
1.047200e+00
1.079920e+00
1.079920e+00
1.079920e+00
1.079920e+00
1.112650e+00
1.112650e+00
1.112650e+00
1.112650e+00
1.145370e+00
1.145370e+00
1.145370e+00
1.145370e+00
1.178100e+00
1.178100e+00
1.178100e+00
1.178100e+00
1.210820e+00
1.210820e+00
1.210820e+00
1.210820e+00
1.243550e+00
1.243550e+00
1.243550e+00
1.243550e+00
1.276270e+00
1.276270e+00
1.276270e+00
1.276270e+00
1.309000e+00
1.309000e+00
1.309000e+00
1.309000e+00
1.341720e+00
1.341720e+00
1.341720e+00
1.341720e+00
1.374450e+00
1.374450e+00
1.374450e+00
1.374450e+00
1.407170e+00
1.407170e+00
1.407170e+00
1.407170e+00
1.439900e+00
1.439900e+00
1.439900e+00
1.439900e+00
1.472620e+00
1.472620e+00
1.472620e+00
1.472620e+00
1.505350e+00
1.505350e+00
1.505350e+00
1.505350e+00
1.538070e+00
1.538070e+00
1.538070e+00
1.538070e+00
1.570800e+00
1.570800e+00
</DataArray>
</PointData>
</Piece></UnstructuredGrid>
</VTKFile>
