<?xml version="1.0"?>
<VTKFile type="UnstructuredGrid" version="0.1" byte_order="LittleEndian" compressor="vtkZLibDataCompressor">
<UnstructuredGrid>
<Piece NumberOfPoints="192" NumberOfCells="48">
<Points>
<DataArray type="Float32" NumberOfComponents="3" format="ascii">
0.000000e+00 4.525900e-01 0.000000e+00
0.000000e+00 5.200000e-01 0.000000e+00
3.789560e-02 4.526020e-01 0.000000e+00
3.787650e-02 5.200000e-01 0.000000e+00
3.789560e-02 4.526020e-01 0.000000e+00
3.787650e-02 5.200000e-01 0.000000e+00
7.579090e-02 4.526370e-01 0.000000e+00
7.575260e-02 5.200000e-01 0.000000e+00
7.579090e-02 4.526370e-01 0.000000e+00
7.575260e-02 5.200000e-01 0.000000e+00
1.136850e-01 4.526940e-01 0.000000e+00
1.136280e-01 5.200000e-01 0.000000e+00
1.136850e-01 4.526940e-01 0.000000e+00
1.136280e-01 5.200000e-01 0.000000e+00
1.515790e-01 4.527750e-01 0.000000e+00
1.515020e-01 5.200000e-01 0.000000e+00
1.515790e-01 4.527750e-01 0.000000e+00
1.515020e-01 5.200000e-01 0.000000e+00
1.894700e-01 4.528780e-01 0.000000e+00
1.893740e-01 5.200000e-01 0.000000e+00
1.894700e-01 4.528780e-01 0.000000e+00
1.893740e-01 5.200000e-01 0.000000e+00
2.273590e-01 4.530040e-01 0.000000e+00
2.272440e-01 5.200000e-01 0.000000e+00
2.273590e-01 4.530040e-01 0.000000e+00
2.272440e-01 5.200000e-01 0.000000e+00
2.652430e-01 4.531530e-01 0.000000e+00
2.651110e-01 5.200000e-01 0.000000e+00
2.652430e-01 4.531530e-01 0.000000e+00
2.651110e-01 5.200000e-01 0.000000e+00
3.031260e-01 4.533240e-01 0.000000e+00
3.029750e-01 5.200000e-01 0.000000e+00
3.031260e-01 4.533240e-01 0.000000e+00
3.029750e-01 5.200000e-01 0.000000e+00
3.410050e-01 4.535180e-01 0.000000e+00
3.408350e-01 5.200000e-01 0.000000e+00
3.410050e-01 4.535180e-01 0.000000e+00
3.408350e-01 5.200000e-01 0.000000e+00
3.788790e-01 4.537350e-01 0.000000e+00
3.786920e-01 5.200000e-01 0.000000e+00
3.788790e-01 4.537350e-01 0.000000e+00
3.786920e-01 5.200000e-01 0.000000e+00
4.167490e-01 4.539730e-01 0.000000e+00
4.165430e-01 5.200000e-01 0.000000e+00
4.167490e-01 4.539730e-01 0.000000e+00
4.165430e-01 5.200000e-01 0.000000e+00
4.546130e-01 4.542340e-01 0.000000e+00
4.543900e-01 5.200000e-01 0.000000e+00
4.546130e-01 4.542340e-01 0.000000e+00
4.543900e-01 5.200000e-01 0.000000e+00
4.924710e-01 4.545160e-01 0.000000e+00
4.922310e-01 5.200000e-01 0.000000e+00
4.924710e-01 4.545160e-01 0.000000e+00
4.922310e-01 5.200000e-01 0.000000e+00
5.303220e-01 4.548200e-01 0.000000e+00
5.300650e-01 5.200000e-01 0.000000e+00
5.303220e-01 4.548200e-01 0.000000e+00
5.300650e-01 5.200000e-01 0.000000e+00
5.681670e-01 4.551460e-01 0.000000e+00
5.678930e-01 5.200000e-01 0.000000e+00
5.681670e-01 4.551460e-01 0.000000e+00
5.678930e-01 5.200000e-01 0.000000e+00
6.060030e-01 4.554920e-01 0.000000e+00
6.057130e-01 5.200000e-01 0.000000e+00
6.060030e-01 4.554920e-01 0.000000e+00
6.057130e-01 5.200000e-01 0.000000e+00
6.438310e-01 4.558590e-01 0.000000e+00
6.435250e-01 5.200000e-01 0.000000e+00
6.438310e-01 4.558590e-01 0.000000e+00
6.435250e-01 5.200000e-01 0.000000e+00
6.816490e-01 4.562470e-01 0.000000e+00
6.813280e-01 5.200000e-01 0.000000e+00
6.816490e-01 4.562470e-01 0.000000e+00
6.813280e-01 5.200000e-01 0.000000e+00
7.194580e-01 4.566550e-01 0.000000e+00
7.191200e-01 5.200000e-01 0.000000e+00
7.194580e-01 4.566550e-01 0.000000e+00
7.191200e-01 5.200000e-01 0.000000e+00
7.572540e-01 4.570840e-01 0.000000e+00
7.569020e-01 5.200000e-01 0.000000e+00
7.572540e-01 4.570840e-01 0.000000e+00
7.569020e-01 5.200000e-01 0.000000e+00
7.950400e-01 4.575330e-01 0.000000e+00
7.946740e-01 5.200000e-01 0.000000e+00
7.950400e-01 4.575330e-01 0.000000e+00
7.946740e-01 5.200000e-01 0.000000e+00
8.328120e-01 4.580050e-01 0.000000e+00
8.324400e-01 5.200000e-01 0.000000e+00
8.328120e-01 4.580050e-01 0.000000e+00
8.324400e-01 5.200000e-01 0.000000e+00
8.705640e-01 4.585010e-01 0.000000e+00
8.702090e-01 5.200000e-01 0.000000e+00
8.705640e-01 4.585010e-01 0.000000e+00
8.702090e-01 5.200000e-01 0.000000e+00
9.082780e-01 4.590280e-01 0.000000e+00
9.080070e-01 5.200000e-01 0.000000e+00
9.082780e-01 4.590280e-01 0.000000e+00
9.080070e-01 5.200000e-01 0.000000e+00
9.459010e-01 4.595860e-01 0.000000e+00
9.458940e-01 5.200000e-01 0.000000e+00
9.459010e-01 4.595860e-01 0.000000e+00
9.458940e-01 5.200000e-01 0.000000e+00
9.833070e-01 4.601480e-01 0.000000e+00
9.839810e-01 5.200000e-01 0.000000e+00
9.833070e-01 4.601480e-01 0.000000e+00
9.839810e-01 5.200000e-01 0.000000e+00
1.020210e+00 4.605780e-01 0.000000e+00
1.022410e+00 5.200000e-01 0.000000e+00
1.020210e+00 4.605780e-01 0.000000e+00
1.022410e+00 5.200000e-01 0.000000e+00
1.056160e+00 4.604040e-01 0.000000e+00
1.061170e+00 5.200000e-01 0.000000e+00
1.056160e+00 4.604040e-01 0.000000e+00
1.061170e+00 5.200000e-01 0.000000e+00
1.091230e+00 4.586640e-01 0.000000e+00
1.099350e+00 5.187590e-01 0.000000e+00
1.091230e+00 4.586640e-01 0.000000e+00
1.099350e+00 5.187590e-01 0.000000e+00
1.125080e+00 4.542240e-01 0.000000e+00
1.137260e+00 5.130560e-01 0.000000e+00
1.125080e+00 4.542240e-01 0.000000e+00
1.137260e+00 5.130560e-01 0.000000e+00
1.157920e+00 4.467370e-01 0.000000e+00
1.174780e+00 5.037740e-01 0.000000e+00
1.157920e+00 4.467370e-01 0.000000e+00
1.174780e+00 5.037740e-01 0.000000e+00
1.189810e+00 4.362010e-01 0.000000e+00
1.211400e+00 4.910010e-01 0.000000e+00
1.189810e+00 4.362010e-01 0.000000e+00
1.211400e+00 4.910010e-01 0.000000e+00
1.220600e+00 4.227510e-01 0.000000e+00
1.246680e+00 4.749450e-01 0.000000e+00
1.220600e+00 4.227510e-01 0.000000e+00
1.246680e+00 4.749450e-01 0.000000e+00
1.250150e+00 4.065490e-01 0.000000e+00
1.280370e+00 4.558470e-01 0.000000e+00
1.250150e+00 4.065490e-01 0.000000e+00
1.280370e+00 4.558470e-01 0.000000e+00
1.278260e+00 3.877970e-01 0.000000e+00
1.312240e+00 4.339810e-01 0.000000e+00
1.278260e+00 3.877970e-01 0.000000e+00
1.312240e+00 4.339810e-01 0.000000e+00
1.304790e+00 3.666830e-01 0.000000e+00
1.342140e+00 4.095930e-01 0.000000e+00
1.304790e+00 3.666830e-01 0.000000e+00
1.342140e+00 4.095930e-01 0.000000e+00
1.329600e+00 3.434240e-01 0.000000e+00
1.369940e+00 3.829470e-01 0.000000e+00
1.329600e+00 3.434240e-01 0.000000e+00
1.369940e+00 3.829470e-01 0.000000e+00
1.352590e+00 3.182070e-01 0.000000e+00
1.395560e+00 3.542600e-01 0.000000e+00
1.352590e+00 3.182070e-01 0.000000e+00
1.395560e+00 3.542600e-01 0.000000e+00
1.373630e+00 2.912460e-01 0.000000e+00
1.418910e+00 3.237720e-01 0.000000e+00
1.373630e+00 2.912460e-01 0.000000e+00
1.418910e+00 3.237720e-01 0.000000e+00
1.392650e+00 2.627170e-01 0.000000e+00
1.439940e+00 2.916760e-01 0.000000e+00
1.392650e+00 2.627170e-01 0.000000e+00
1.439940e+00 2.916760e-01 0.000000e+00
1.409580e+00 2.328240e-01 0.000000e+00
1.458590e+00 2.581920e-01 0.000000e+00
1.409580e+00 2.328240e-01 0.000000e+00
1.458590e+00 2.581920e-01 0.000000e+00
1.424370e+00 2.017330e-01 0.000000e+00
1.474830e+00 2.234920e-01 0.000000e+00
1.424370e+00 2.017330e-01 0.000000e+00
1.474830e+00 2.234920e-01 0.000000e+00
1.436950e+00 1.696410e-01 0.000000e+00
1.488620e+00 1.877820e-01 0.000000e+00
1.436950e+00 1.696410e-01 0.000000e+00
1.488620e+00 1.877820e-01 0.000000e+00
1.447300e+00 1.367020e-01 0.000000e+00
1.499940e+00 1.512180e-01 0.000000e+00
1.447300e+00 1.367020e-01 0.000000e+00
1.499940e+00 1.512180e-01 0.000000e+00
1.455380e+00 1.031090e-01 0.000000e+00
1.508760e+00 1.139980e-01 0.000000e+00
1.455380e+00 1.031090e-01 0.000000e+00
1.508760e+00 1.139980e-01 0.000000e+00
1.461170e+00 6.900890e-02 0.000000e+00
1.515080e+00 7.626800e-02 0.000000e+00
1.461170e+00 6.900890e-02 0.000000e+00
1.515080e+00 7.626800e-02 0.000000e+00
1.464640e+00 3.458930e-02 0.000000e+00
1.518870e+00 3.821940e-02 0.000000e+00
1.464640e+00 3.458930e-02 0.000000e+00
1.518870e+00 3.821940e-02 0.000000e+00
1.465800e+00 -5.384200e-06 0.000000e+00
1.520130e+00 -5.583750e-06 0.000000e+00
</DataArray>
</Points>
<Cells>
<DataArray type="Int32" Name="connectivity" format="ascii">
0 1 3 2
4 5 7 6
8 9 11 10
12 13 15 14
16 17 19 18
20 21 23 22
24 25 27 26
28 29 31 30
32 33 35 34
36 37 39 38
40 41 43 42
44 45 47 46
48 49 51 50
52 53 55 54
56 57 59 58
60 61 63 62
64 65 67 66
68 69 71 70
72 73 75 74
76 77 79 78
80 81 83 82
84 85 87 86
88 89 91 90
92 93 95 94
96 97 99 98
100 101 103 102
104 105 107 106
108 109 111 110
112 113 115 114
116 117 119 118
120 121 123 122
124 125 127 126
128 129 131 130
132 133 135 134
136 137 139 138
140 141 143 142
144 145 147 146
148 149 151 150
152 153 155 154
156 157 159 158
160 161 163 162
164 165 167 166
168 169 171 170
172 173 175 174
176 177 179 178
180 181 183 182
184 185 187 186
188 189 191 190
</DataArray>
<DataArray type="Int32" Name="offsets" format="ascii">
4
8
12
16
20
24
28
32
36
40
44
48
52
56
60
64
68
72
76
80
84
88
92
96
100
104
108
112
116
120
124
128
132
136
140
144
148
152
156
160
164
168
172
176
180
184
188
192
</DataArray>
<DataArray type="UInt8" Name="types" format="ascii">
9
9
9
9
9
9
9
9
9
9
9
9
9
9
9
9
9
9
9
9
9
9
9
9
9
9
9
9
9
9
9
9
9
9
9
9
9
9
9
9
9
9
9
9
9
9
9
9
</DataArray>
</Cells>
<PointData>
<DataArray type="Float32" Name="V1" format="ascii">
3.994470e+00
1.515990e+00
3.996830e+00
1.518350e+00
3.997420e+00
1.518140e+00
4.003080e+00
1.523800e+00
4.004180e+00
1.523240e+00
4.013930e+00
1.532990e+00
4.015390e+00
1.531950e+00
4.029190e+00
1.545750e+00
4.031050e+00
1.544270e+00
4.048900e+00
1.562120e+00
4.051180e+00
1.560200e+00
4.073090e+00
1.582110e+00
4.075810e+00
1.579760e+00
4.101810e+00
1.605760e+00
4.104990e+00
1.602970e+00
4.135120e+00
1.633100e+00
4.138760e+00
1.629860e+00
4.173060e+00
1.664160e+00
4.177190e+00
1.660460e+00
4.215710e+00
1.698980e+00
4.220340e+00
1.694810e+00
4.263140e+00
1.737610e+00
4.268290e+00
1.732950e+00
4.315440e+00
1.780100e+00
4.321130e+00
1.774930e+00
4.372700e+00
1.826510e+00
4.378950e+00
1.820820e+00
4.435030e+00
1.876890e+00
4.441870e+00
1.870660e+00
4.502540e+00
1.931320e+00
4.510000e+00
1.924520e+00
4.575350e+00
1.989880e+00
4.583460e+00
1.982480e+00
4.653620e+00
2.052640e+00
4.662430e+00
2.044610e+00
4.737500e+00
2.119680e+00
4.747050e+00
2.110970e+00
4.827150e+00
2.191080e+00
4.837500e+00
2.181640e+00
4.922750e+00
2.266890e+00
4.933920e+00
2.256730e+00
5.024400e+00
2.347210e+00
5.036150e+00
2.336520e+00
5.131870e+00
2.432240e+00
5.143190e+00
2.421970e+00
5.244010e+00
2.522790e+00
5.251410e+00
2.516070e+00
5.357040e+00
2.621700e+00
5.350500e+00
2.627460e+00
5.460890e+00
2.737850e+00
5.414920e+00
2.778600e+00
5.532360e+00
2.896040e+00
5.390050e+00
3.021760e+00
5.526770e+00
3.158480e+00
5.184390e+00
3.459930e+00
5.383840e+00
3.659390e+00
4.782240e+00
4.258340e+00
5.027170e+00
4.503280e+00
4.637680e+00
4.824320e+00
4.774830e+00
4.961470e+00
4.628540e+00
5.091720e+00
4.764110e+00
5.227290e+00
4.708160e+00
5.278180e+00
4.843340e+00
5.413360e+00
4.832730e+00
5.423130e+00
4.965090e+00
5.555500e+00
4.976530e+00
5.545240e+00
5.104420e+00
5.673140e+00
5.125930e+00
5.653790e+00
5.248000e+00
5.775860e+00
5.273370e+00
5.752960e+00
5.388700e+00
5.868290e+00
5.414830e+00
5.844760e+00
5.522590e+00
5.952520e+00
5.547830e+00
5.929770e+00
5.647490e+00
6.029430e+00
5.671070e+00
6.008230e+00
5.762130e+00
6.099290e+00
5.783600e+00
6.079960e+00
5.865750e+00
6.162110e+00
5.884950e+00
6.144860e+00
5.957880e+00
6.217790e+00
5.974700e+00
6.202670e+00
6.038240e+00
6.266210e+00
6.052660e+00
6.253270e+00
6.106630e+00
6.307230e+00
6.118620e+00
6.296450e+00
6.162920e+00
6.340750e+00
6.172510e+00
6.332150e+00
6.207030e+00
6.366670e+00
6.214210e+00
6.360230e+00
6.238910e+00
6.384930e+00
6.243690e+00
6.380640e+00
6.258530e+00
6.395480e+00
6.260920e+00
6.393340e+00
6.265860e+00
6.398280e+00
</DataArray>
<DataArray type="Float32" Name="V2" format="ascii">
4.525900e-01
5.200000e-01
4.536000e-01
5.209610e-01
4.536000e-01
5.209610e-01
4.566240e-01
5.238410e-01
4.566240e-01
5.238410e-01
4.616570e-01
5.286340e-01
4.616570e-01
5.286340e-01
4.686860e-01
5.353260e-01
4.686860e-01
5.353260e-01
4.776930e-01
5.439030e-01
4.776930e-01
5.439030e-01
4.886550e-01
5.543420e-01
4.886550e-01
5.543420e-01
5.015460e-01
5.666160e-01
5.015460e-01
5.666160e-01
5.163330e-01
5.806970e-01
5.163330e-01
5.806970e-01
5.329790e-01
5.965480e-01
5.329790e-01
5.965480e-01
5.514420e-01
6.141300e-01
5.514420e-01
6.141300e-01
5.716760e-01
6.333980e-01
5.716760e-01
6.333980e-01
5.936300e-01
6.543050e-01
5.936300e-01
6.543050e-01
6.172490e-01
6.767960e-01
6.172490e-01
6.767960e-01
6.424720e-01
7.008160e-01
6.424720e-01
7.008160e-01
6.692350e-01
7.263020e-01
6.692350e-01
7.263020e-01
6.974690e-01
7.531900e-01
6.974690e-01
7.531900e-01
7.271030e-01
7.814100e-01
7.271030e-01
7.814100e-01
7.580600e-01
8.108900e-01
7.580600e-01
8.108900e-01
7.902590e-01
8.415520e-01
7.902590e-01
8.415520e-01
8.236160e-01
8.733160e-01
8.236160e-01
8.733160e-01
8.580460e-01
9.061010e-01
8.580460e-01
9.061010e-01
8.934570e-01
9.398230e-01
8.934570e-01
9.398230e-01
9.297550e-01
9.743970e-01
9.297550e-01
9.743970e-01
9.668310e-01
1.009750e+00
9.668310e-01
1.009750e+00
1.004550e+00
1.045840e+00
1.004550e+00
1.045840e+00
1.042690e+00
1.082660e+00
1.042690e+00
1.082660e+00
1.080820e+00
1.120220e+00
1.080820e+00
1.120220e+00
1.118190e+00
1.158440e+00
1.118190e+00
1.158440e+00
1.154170e+00
1.195770e+00
1.154170e+00
1.195770e+00
1.187820e+00
1.230640e+00
1.187820e+00
1.230640e+00
1.219210e+00
1.263660e+00
1.219210e+00
1.263660e+00
1.248510e+00
1.294600e+00
1.248510e+00
1.294600e+00
1.275760e+00
1.323360e+00
1.275760e+00
1.323360e+00
1.301040e+00
1.349950e+00
1.301040e+00
1.349950e+00
1.324360e+00
1.374370e+00
1.324360e+00
1.374370e+00
1.345800e+00
1.396720e+00
1.345800e+00
1.396720e+00
1.365360e+00
1.417020e+00
1.365360e+00
1.417020e+00
1.383090e+00
1.435370e+00
1.383090e+00
1.435370e+00
1.399020e+00
1.451790e+00
1.399020e+00
1.451790e+00
1.413200e+00
1.466370e+00
1.413200e+00
1.466370e+00
1.425630e+00
1.479120e+00
1.425630e+00
1.479120e+00
1.436360e+00
1.490090e+00
1.436360e+00
1.490090e+00
1.445390e+00
1.499330e+00
1.445390e+00
1.499330e+00
1.452760e+00
1.506850e+00
1.452760e+00
1.506850e+00
1.458480e+00
1.512670e+00
1.458480e+00
1.512670e+00
1.462550e+00
1.516820e+00
1.462550e+00
1.516820e+00
1.464990e+00
1.519300e+00
1.464990e+00
1.519300e+00
1.465800e+00
1.520130e+00
</DataArray>
<DataArray type="Float32" Name="V3" format="ascii">
0.000000e+00
0.000000e+00
2.306660e-02
2.084230e-02
2.306660e-02
2.084230e-02
4.602480e-02
4.158080e-02
4.602480e-02
4.158080e-02
6.876610e-02
6.211180e-02
6.876610e-02
6.211180e-02
9.118270e-02
8.233220e-02
9.118270e-02
8.233220e-02
1.131670e-01
1.021390e-01
1.131670e-01
1.021390e-01
1.346130e-01
1.214310e-01
1.346130e-01
1.214310e-01
1.554140e-01
1.401060e-01
1.554140e-01
1.401060e-01
1.754680e-01
1.580650e-01
1.754680e-01
1.580650e-01
1.946720e-01
1.752110e-01
1.946720e-01
1.752110e-01
2.129240e-01
1.914460e-01
2.129240e-01
1.914460e-01
2.301260e-01
2.066750e-01
2.301260e-01
2.066750e-01
2.461800e-01
2.208060e-01
2.461800e-01
2.208060e-01
2.609920e-01
2.337480e-01
2.609920e-01
2.337480e-01
2.744700e-01
2.454110e-01
2.744700e-01
2.454110e-01
2.865240e-01
2.557110e-01
2.865240e-01
2.557110e-01
2.970680e-01
2.645630e-01
2.970680e-01
2.645630e-01
3.060180e-01
2.718870e-01
3.060180e-01
2.718870e-01
3.132930e-01
2.776060e-01
3.132930e-01
2.776060e-01
3.188170e-01
2.816460e-01
3.188170e-01
2.816460e-01
3.225160e-01
2.839350e-01
3.225160e-01
2.839350e-01
3.243190e-01
2.844080e-01
3.243190e-01
2.844080e-01
3.241580e-01
2.830020e-01
3.241580e-01
2.830020e-01
3.219660e-01
2.796660e-01
3.219660e-01
2.796660e-01
3.176670e-01
2.743630e-01
3.176670e-01
2.743630e-01
3.111750e-01
2.670770e-01
3.111750e-01
2.670770e-01
3.023810e-01
2.578270e-01
3.023810e-01
2.578270e-01
2.911850e-01
2.466460e-01
2.911850e-01
2.466460e-01
2.776880e-01
2.334580e-01
2.776880e-01
2.334580e-01
2.627950e-01
2.186770e-01
2.627950e-01
2.186770e-01
2.473850e-01
2.052370e-01
2.473850e-01
2.052370e-01
2.320930e-01
1.925630e-01
2.320930e-01
1.925630e-01
2.171410e-01
1.804760e-01
2.171410e-01
1.804760e-01
2.025580e-01
1.688210e-01
2.025580e-01
1.688210e-01
1.883000e-01
1.574540e-01
1.883000e-01
1.574540e-01
1.743190e-01
1.462750e-01
1.743190e-01
1.462750e-01
1.605480e-01
1.351950e-01
1.605480e-01
1.351950e-01
1.469440e-01
1.241610e-01
1.469440e-01
1.241610e-01
1.334510e-01
1.131240e-01
1.334510e-01
1.131240e-01
1.200410e-01
1.020590e-01
1.200410e-01
1.020590e-01
1.066760e-01
9.094160e-02
1.066760e-01
9.094160e-02
9.334380e-02
7.976650e-02
9.334380e-02
7.976650e-02
8.001940e-02
6.852290e-02
8.001940e-02
6.852290e-02
6.670060e-02
5.721870e-02
6.670060e-02
5.721870e-02
5.337300e-02
4.585190e-02
5.337300e-02
4.585190e-02
4.004180e-02
3.443800e-02
4.004180e-02
3.443800e-02
2.669860e-02
2.298060e-02
2.669860e-02
2.298060e-02
1.335310e-02
1.149910e-02
1.335310e-02
1.149910e-02
0.000000e+00
0.000000e+00
</DataArray>
<DataArray type="Float32" Name="V4" format="ascii">
9.000000e-01
1.000000e+00
9.000000e-01
1.000000e+00
9.000000e-01
1.000000e+00
9.000000e-01
1.000000e+00
9.000000e-01
1.000000e+00
9.000000e-01
1.000000e+00
9.000000e-01
1.000000e+00
9.000000e-01
1.000000e+00
9.000000e-01
1.000000e+00
9.000000e-01
1.000000e+00
9.000000e-01
1.000000e+00
9.000000e-01
1.000000e+00
9.000000e-01
1.000000e+00
9.000000e-01
1.000000e+00
9.000000e-01
1.000000e+00
9.000000e-01
1.000000e+00
9.000000e-01
1.000000e+00
9.000000e-01
1.000000e+00
9.000000e-01
1.000000e+00
9.000000e-01
1.000000e+00
9.000000e-01
1.000000e+00
9.000000e-01
1.000000e+00
9.000000e-01
1.000000e+00
9.000000e-01
1.000000e+00
9.000000e-01
1.000000e+00
9.000000e-01
1.000000e+00
9.000000e-01
1.000000e+00
9.000000e-01
1.000000e+00
9.000000e-01
1.000000e+00
9.000000e-01
1.000000e+00
9.000000e-01
1.000000e+00
9.000000e-01
1.000000e+00
9.000000e-01
1.000000e+00
9.000000e-01
1.000000e+00
9.000000e-01
1.000000e+00
9.000000e-01
1.000000e+00
9.000000e-01
1.000000e+00
9.000000e-01
1.000000e+00
9.000000e-01
1.000000e+00
9.000000e-01
1.000000e+00
9.000000e-01
1.000000e+00
9.000000e-01
1.000000e+00
9.000000e-01
1.000000e+00
9.000000e-01
1.000000e+00
9.000000e-01
1.000000e+00
9.000000e-01
1.000000e+00
9.000000e-01
1.000000e+00
9.000000e-01
1.000000e+00
9.000000e-01
1.000000e+00
9.000000e-01
1.000000e+00
9.000000e-01
1.000000e+00
9.000000e-01
1.000000e+00
9.000000e-01
1.000000e+00
9.000000e-01
1.000000e+00
9.000000e-01
1.000000e+00
9.000000e-01
1.000000e+00
9.000000e-01
1.000000e+00
9.000000e-01
1.000000e+00
9.000000e-01
1.000000e+00
9.000000e-01
1.000000e+00
9.000000e-01
1.000000e+00
9.000000e-01
1.000000e+00
9.000000e-01
1.000000e+00
9.000000e-01
1.000000e+00
9.000000e-01
1.000000e+00
9.000000e-01
1.000000e+00
9.000000e-01
1.000000e+00
9.000000e-01
1.000000e+00
9.000000e-01
1.000000e+00
9.000000e-01
1.000000e+00
9.000000e-01
1.000000e+00
9.000000e-01
1.000000e+00
9.000000e-01
1.000000e+00
9.000000e-01
1.000000e+00
9.000000e-01
1.000000e+00
9.000000e-01
1.000000e+00
9.000000e-01
1.000000e+00
9.000000e-01
1.000000e+00
9.000000e-01
1.000000e+00
9.000000e-01
1.000000e+00
9.000000e-01
1.000000e+00
9.000000e-01
1.000000e+00
9.000000e-01
1.000000e+00
9.000000e-01
1.000000e+00
9.000000e-01
1.000000e+00
9.000000e-01
1.000000e+00
9.000000e-01
1.000000e+00
9.000000e-01
1.000000e+00
9.000000e-01
1.000000e+00
9.000000e-01
1.000000e+00
9.000000e-01
1.000000e+00
9.000000e-01
1.000000e+00
9.000000e-01
1.000000e+00
9.000000e-01
1.000000e+00
9.000000e-01
1.000000e+00
9.000000e-01
1.000000e+00
</DataArray>
<DataArray type="Float32" Name="V5" format="ascii">
0.000000e+00
0.000000e+00
3.272490e-02
3.272490e-02
3.272490e-02
3.272490e-02
6.544980e-02
6.544980e-02
6.544980e-02
6.544980e-02
9.817480e-02
9.817480e-02
9.817480e-02
9.817480e-02
1.309000e-01
1.309000e-01
1.309000e-01
1.309000e-01
1.636250e-01
1.636250e-01
1.636250e-01
1.636250e-01
1.963500e-01
1.963500e-01
1.963500e-01
1.963500e-01
2.290740e-01
2.290740e-01
2.290740e-01
2.290740e-01
2.617990e-01
2.617990e-01
2.617990e-01
2.617990e-01
2.945240e-01
2.945240e-01
2.945240e-01
2.945240e-01
3.272490e-01
3.272490e-01
3.272490e-01
3.272490e-01
3.599740e-01
3.599740e-01
3.599740e-01
3.599740e-01
3.926990e-01
3.926990e-01
3.926990e-01
3.926990e-01
4.254240e-01
4.254240e-01
4.254240e-01
4.254240e-01
4.581490e-01
4.581490e-01
4.581490e-01
4.581490e-01
4.908740e-01
4.908740e-01
4.908740e-01
4.908740e-01
5.235990e-01
5.235990e-01
5.235990e-01
5.235990e-01
5.563240e-01
5.563240e-01
5.563240e-01
5.563240e-01
5.890490e-01
5.890490e-01
5.890490e-01
5.890490e-01
6.217740e-01
6.217740e-01
6.217740e-01
6.217740e-01
6.544980e-01
6.544980e-01
6.544980e-01
6.544980e-01
6.872230e-01
6.872230e-01
6.872230e-01
6.872230e-01
7.199480e-01
7.199480e-01
7.199480e-01
7.199480e-01
7.526730e-01
7.526730e-01
7.526730e-01
7.526730e-01
7.853980e-01
7.853980e-01
7.853980e-01
7.853980e-01
8.181230e-01
8.181230e-01
8.181230e-01
8.181230e-01
8.508480e-01
8.508480e-01
8.508480e-01
8.508480e-01
8.835730e-01
8.835730e-01
8.835730e-01
8.835730e-01
9.162980e-01
9.162980e-01
9.162980e-01
9.162980e-01
9.490230e-01
9.490230e-01
9.490230e-01
9.490230e-01
9.817480e-01
9.817480e-01
9.817480e-01
9.817480e-01
1.014470e+00
1.014470e+00
1.014470e+00
1.014470e+00
1.047200e+00
1.047200e+00
1.047200e+00
1.047200e+00
1.079920e+00
1.079920e+00
1.079920e+00
1.079920e+00
1.112650e+00
1.112650e+00
1.112650e+00
1.112650e+00
1.145370e+00
1.145370e+00
1.145370e+00
1.145370e+00
1.178100e+00
1.178100e+00
1.178100e+00
1.178100e+00
1.210820e+00
1.210820e+00
1.210820e+00
1.210820e+00
1.243550e+00
1.243550e+00
1.243550e+00
1.243550e+00
1.276270e+00
1.276270e+00
1.276270e+00
1.276270e+00
1.309000e+00
1.309000e+00
1.309000e+00
1.309000e+00
1.341720e+00
1.341720e+00
1.341720e+00
1.341720e+00
1.374450e+00
1.374450e+00
1.374450e+00
1.374450e+00
1.407170e+00
1.407170e+00
1.407170e+00
1.407170e+00
1.439900e+00
1.439900e+00
1.439900e+00
1.439900e+00
1.472620e+00
1.472620e+00
1.472620e+00
1.472620e+00
1.505350e+00
1.505350e+00
1.505350e+00
1.505350e+00
1.538070e+00
1.538070e+00
1.538070e+00
1.538070e+00
1.570800e+00
1.570800e+00
</DataArray>
</PointData>
</Piece></UnstructuredGrid>
</VTKFile>
