<?xml version="1.0"?>
<VTKFile type="UnstructuredGrid" version="0.1" byte_order="LittleEndian" compressor="vtkZLibDataCompressor">
<UnstructuredGrid>
<Piece NumberOfPoints="192" NumberOfCells="48">
<Points>
<DataArray type="Float32" NumberOfComponents="3" format="ascii">
0.000000e+00 3.634710e-01 0.000000e+00
0.000000e+00 4.000000e-01 0.000000e+00
5.146540e-02 3.634770e-01 0.000000e+00
5.145920e-02 4.000000e-01 0.000000e+00
5.146540e-02 3.634770e-01 0.000000e+00
5.145920e-02 4.000000e-01 0.000000e+00
1.029290e-01 3.634940e-01 0.000000e+00
1.029170e-01 4.000000e-01 0.000000e+00
1.029290e-01 3.634940e-01 0.000000e+00
1.029170e-01 4.000000e-01 0.000000e+00
1.543900e-01 3.635230e-01 0.000000e+00
1.543710e-01 4.000000e-01 0.000000e+00
1.543900e-01 3.635230e-01 0.000000e+00
1.543710e-01 4.000000e-01 0.000000e+00
2.058460e-01 3.635630e-01 0.000000e+00
2.058210e-01 4.000000e-01 0.000000e+00
2.058460e-01 3.635630e-01 0.000000e+00
2.058210e-01 4.000000e-01 0.000000e+00
2.572940e-01 3.636140e-01 0.000000e+00
2.572630e-01 4.000000e-01 0.000000e+00
2.572940e-01 3.636140e-01 0.000000e+00
2.572630e-01 4.000000e-01 0.000000e+00
3.087340e-01 3.636760e-01 0.000000e+00
3.086960e-01 4.000000e-01 0.000000e+00
3.087340e-01 3.636760e-01 0.000000e+00
3.086960e-01 4.000000e-01 0.000000e+00
3.601610e-01 3.637500e-01 0.000000e+00
3.601170e-01 4.000000e-01 0.000000e+00
3.601610e-01 3.637500e-01 0.000000e+00
3.601170e-01 4.000000e-01 0.000000e+00
4.115770e-01 3.638340e-01 0.000000e+00
4.115270e-01 4.000000e-01 0.000000e+00
4.115770e-01 3.638340e-01 0.000000e+00
4.115270e-01 4.000000e-01 0.000000e+00
4.629770e-01 3.639290e-01 0.000000e+00
4.629220e-01 4.000000e-01 0.000000e+00
4.629770e-01 3.639290e-01 0.000000e+00
4.629220e-01 4.000000e-01 0.000000e+00
5.143610e-01 3.640360e-01 0.000000e+00
5.142990e-01 4.000000e-01 0.000000e+00
5.143610e-01 3.640360e-01 0.000000e+00
5.142990e-01 4.000000e-01 0.000000e+00
5.657260e-01 3.641520e-01 0.000000e+00
5.656580e-01 4.000000e-01 0.000000e+00
5.657260e-01 3.641520e-01 0.000000e+00
5.656580e-01 4.000000e-01 0.000000e+00
6.170680e-01 3.642790e-01 0.000000e+00
6.169940e-01 4.000000e-01 0.000000e+00
6.170680e-01 3.642790e-01 0.000000e+00
6.169940e-01 4.000000e-01 0.000000e+00
6.683860e-01 3.644170e-01 0.000000e+00
6.683070e-01 4.000000e-01 0.000000e+00
6.683860e-01 3.644170e-01 0.000000e+00
6.683070e-01 4.000000e-01 0.000000e+00
7.196760e-01 3.645640e-01 0.000000e+00
7.195910e-01 4.000000e-01 0.000000e+00
7.196760e-01 3.645640e-01 0.000000e+00
7.195910e-01 4.000000e-01 0.000000e+00
7.709360e-01 3.647210e-01 0.000000e+00
7.708460e-01 4.000000e-01 0.000000e+00
7.709360e-01 3.647210e-01 0.000000e+00
7.708460e-01 4.000000e-01 0.000000e+00
8.221630e-01 3.648880e-01 0.000000e+00
8.220670e-01 4.000000e-01 0.000000e+00
8.221630e-01 3.648880e-01 0.000000e+00
8.220670e-01 4.000000e-01 0.000000e+00
8.733530e-01 3.650640e-01 0.000000e+00
8.732510e-01 4.000000e-01 0.000000e+00
8.733530e-01 3.650640e-01 0.000000e+00
8.732510e-01 4.000000e-01 0.000000e+00
9.245020e-01 3.652500e-01 0.000000e+00
9.243950e-01 4.000000e-01 0.000000e+00
9.245020e-01 3.652500e-01 0.000000e+00
9.243950e-01 4.000000e-01 0.000000e+00
9.756060e-01 3.654440e-01 0.000000e+00
9.754940e-01 4.000000e-01 0.000000e+00
9.756060e-01 3.654440e-01 0.000000e+00
9.754940e-01 4.000000e-01 0.000000e+00
1.026660e+00 3.656460e-01 0.000000e+00
1.026540e+00 4.000000e-01 0.000000e+00
1.026660e+00 3.656460e-01 0.000000e+00
1.026540e+00 4.000000e-01 0.000000e+00
1.077660e+00 3.658570e-01 0.000000e+00
1.077540e+00 4.000000e-01 0.000000e+00
1.077660e+00 3.658570e-01 0.000000e+00
1.077540e+00 4.000000e-01 0.000000e+00
1.128610e+00 3.660770e-01 0.000000e+00
1.128480e+00 4.000000e-01 0.000000e+00
1.128610e+00 3.660770e-01 0.000000e+00
1.128480e+00 4.000000e-01 0.000000e+00
1.179490e+00 3.663030e-01 0.000000e+00
1.179360e+00 4.000000e-01 0.000000e+00
1.179490e+00 3.663030e-01 0.000000e+00
1.179360e+00 4.000000e-01 0.000000e+00
1.230310e+00 3.665370e-01 0.000000e+00
1.230170e+00 4.000000e-01 0.000000e+00
1.230310e+00 3.665370e-01 0.000000e+00
1.230170e+00 4.000000e-01 0.000000e+00
1.281050e+00 3.667780e-01 0.000000e+00
1.280910e+00 4.000000e-01 0.000000e+00
1.281050e+00 3.667780e-01 0.000000e+00
1.280910e+00 4.000000e-01 0.000000e+00
1.331710e+00 3.670260e-01 0.000000e+00
1.331570e+00 4.000000e-01 0.000000e+00
1.331710e+00 3.670260e-01 0.000000e+00
1.331570e+00 4.000000e-01 0.000000e+00
1.382290e+00 3.672810e-01 0.000000e+00
1.382140e+00 4.000000e-01 0.000000e+00
1.382290e+00 3.672810e-01 0.000000e+00
1.382140e+00 4.000000e-01 0.000000e+00
1.432770e+00 3.675410e-01 0.000000e+00
1.432620e+00 4.000000e-01 0.000000e+00
1.432770e+00 3.675410e-01 0.000000e+00
1.432620e+00 4.000000e-01 0.000000e+00
1.483150e+00 3.678070e-01 0.000000e+00
1.483000e+00 4.000000e-01 0.000000e+00
1.483150e+00 3.678070e-01 0.000000e+00
1.483000e+00 4.000000e-01 0.000000e+00
1.533420e+00 3.680790e-01 0.000000e+00
1.533280e+00 4.000000e-01 0.000000e+00
1.533420e+00 3.680790e-01 0.000000e+00
1.533280e+00 4.000000e-01 0.000000e+00
1.583560e+00 3.683570e-01 0.000000e+00
1.583450e+00 4.000000e-01 0.000000e+00
1.583560e+00 3.683570e-01 0.000000e+00
1.583450e+00 4.000000e-01 0.000000e+00
1.633560e+00 3.686400e-01 0.000000e+00
1.633540e+00 4.000000e-01 0.000000e+00
1.633560e+00 3.686400e-01 0.000000e+00
1.633540e+00 4.000000e-01 0.000000e+00
1.683340e+00 3.689300e-01 0.000000e+00
1.683590e+00 4.000000e-01 0.000000e+00
1.683340e+00 3.689300e-01 0.000000e+00
1.683590e+00 4.000000e-01 0.000000e+00
1.732760e+00 3.692220e-01 0.000000e+00
1.733760e+00 4.000000e-01 0.000000e+00
1.732760e+00 3.692220e-01 0.000000e+00
1.733760e+00 4.000000e-01 0.000000e+00
1.781390e+00 3.694020e-01 0.000000e+00
1.784240e+00 4.000000e-01 0.000000e+00
1.781390e+00 3.694020e-01 0.000000e+00
1.784240e+00 4.000000e-01 0.000000e+00
1.828740e+00 3.681450e-01 0.000000e+00
1.833890e+00 3.992540e-01 0.000000e+00
1.828740e+00 3.681450e-01 0.000000e+00
1.833890e+00 3.992540e-01 0.000000e+00
1.874370e+00 3.619270e-01 0.000000e+00
1.881910e+00 3.922180e-01 0.000000e+00
1.874370e+00 3.619270e-01 0.000000e+00
1.881910e+00 3.922180e-01 0.000000e+00
1.917990e+00 3.495470e-01 0.000000e+00
1.928850e+00 3.784740e-01 0.000000e+00
1.917990e+00 3.495470e-01 0.000000e+00
1.928850e+00 3.784740e-01 0.000000e+00
1.959250e+00 3.314130e-01 0.000000e+00
1.973530e+00 3.584870e-01 0.000000e+00
1.959250e+00 3.314130e-01 0.000000e+00
1.973530e+00 3.584870e-01 0.000000e+00
1.997650e+00 3.080040e-01 0.000000e+00
2.015110e+00 3.328170e-01 0.000000e+00
1.997650e+00 3.080040e-01 0.000000e+00
2.015110e+00 3.328170e-01 0.000000e+00
2.032650e+00 2.798780e-01 0.000000e+00
2.052940e+00 3.021130e-01 0.000000e+00
2.032650e+00 2.798780e-01 0.000000e+00
2.052940e+00 3.021130e-01 0.000000e+00
2.063810e+00 2.475900e-01 0.000000e+00
2.086550e+00 2.670050e-01 0.000000e+00
2.063810e+00 2.475900e-01 0.000000e+00
2.086550e+00 2.670050e-01 0.000000e+00
2.090760e+00 2.117530e-01 0.000000e+00
2.115540e+00 2.281650e-01 0.000000e+00
2.090760e+00 2.117530e-01 0.000000e+00
2.115540e+00 2.281650e-01 0.000000e+00
2.113200e+00 1.729400e-01 0.000000e+00
2.139630e+00 1.862120e-01 0.000000e+00
2.113200e+00 1.729400e-01 0.000000e+00
2.139630e+00 1.862120e-01 0.000000e+00
2.130880e+00 1.317740e-01 0.000000e+00
2.158580e+00 1.418080e-01 0.000000e+00
2.130880e+00 1.317740e-01 0.000000e+00
2.158580e+00 1.418080e-01 0.000000e+00
2.143630e+00 8.882380e-02 0.000000e+00
2.172230e+00 9.554880e-02 0.000000e+00
2.143630e+00 8.882380e-02 0.000000e+00
2.172230e+00 9.554880e-02 0.000000e+00
2.151330e+00 4.470890e-02 0.000000e+00
2.180460e+00 4.808250e-02 0.000000e+00
2.151330e+00 4.470890e-02 0.000000e+00
2.180460e+00 4.808250e-02 0.000000e+00
2.153900e+00 -7.911720e-06 0.000000e+00
2.183210e+00 -8.019400e-06 0.000000e+00
</DataArray>
</Points>
<Cells>
<DataArray type="Int32" Name="connectivity" format="ascii">
0 1 3 2
4 5 7 6
8 9 11 10
12 13 15 14
16 17 19 18
20 21 23 22
24 25 27 26
28 29 31 30
32 33 35 34
36 37 39 38
40 41 43 42
44 45 47 46
48 49 51 50
52 53 55 54
56 57 59 58
60 61 63 62
64 65 67 66
68 69 71 70
72 73 75 74
76 77 79 78
80 81 83 82
84 85 87 86
88 89 91 90
92 93 95 94
96 97 99 98
100 101 103 102
104 105 107 106
108 109 111 110
112 113 115 114
116 117 119 118
120 121 123 122
124 125 127 126
128 129 131 130
132 133 135 134
136 137 139 138
140 141 143 142
144 145 147 146
148 149 151 150
152 153 155 154
156 157 159 158
160 161 163 162
164 165 167 166
168 169 171 170
172 173 175 174
176 177 179 178
180 181 183 182
184 185 187 186
188 189 191 190
</DataArray>
<DataArray type="Int32" Name="offsets" format="ascii">
4
8
12
16
20
24
28
32
36
40
44
48
52
56
60
64
68
72
76
80
84
88
92
96
100
104
108
112
116
120
124
128
132
136
140
144
148
152
156
160
164
168
172
176
180
184
188
192
</DataArray>
<DataArray type="UInt8" Name="types" format="ascii">
9
9
9
9
9
9
9
9
9
9
9
9
9
9
9
9
9
9
9
9
9
9
9
9
9
9
9
9
9
9
9
9
9
9
9
9
9
9
9
9
9
9
9
9
9
9
9
9
</DataArray>
</Cells>
<PointData>
<DataArray type="Float32" Name="V1" format="ascii">
1.535140e+01
9.441010e+00
1.535660e+01
9.446210e+00
1.535860e+01
9.444980e+00
1.537100e+01
9.457440e+00
1.537480e+01
9.454920e+00
1.539610e+01
9.476210e+00
1.540150e+01
9.472120e+00
1.543150e+01
9.502180e+00
1.543850e+01
9.496550e+00
1.547740e+01
9.535380e+00
1.548600e+01
9.528240e+00
1.553370e+01
9.575870e+00
1.554410e+01
9.567220e+00
1.560050e+01
9.623700e+00
1.561260e+01
9.613530e+00
1.567810e+01
9.678930e+00
1.569190e+01
9.667230e+00
1.576630e+01
9.741640e+00
1.578200e+01
9.728390e+00
1.586540e+01
9.811890e+00
1.588290e+01
9.797090e+00
1.597560e+01
9.889770e+00
1.599480e+01
9.873390e+00
1.609680e+01
9.975390e+00
1.611790e+01
9.957410e+00
1.622940e+01
1.006880e+01
1.625240e+01
1.004920e+01
1.637340e+01
1.017020e+01
1.639830e+01
1.014900e+01
1.652910e+01
1.027970e+01
1.655600e+01
1.025680e+01
1.669660e+01
1.039740e+01
1.672560e+01
1.037280e+01
1.687630e+01
1.052350e+01
1.690720e+01
1.049710e+01
1.706820e+01
1.065810e+01
1.710130e+01
1.062990e+01
1.727280e+01
1.080140e+01
1.730800e+01
1.077140e+01
1.749010e+01
1.095350e+01
1.752750e+01
1.092170e+01
1.772070e+01
1.111480e+01
1.776030e+01
1.108100e+01
1.796460e+01
1.128530e+01
1.800660e+01
1.124960e+01
1.822240e+01
1.146540e+01
1.826670e+01
1.142760e+01
1.849420e+01
1.165520e+01
1.854100e+01
1.161540e+01
1.878060e+01
1.185490e+01
1.882980e+01
1.181300e+01
1.908170e+01
1.206500e+01
1.913350e+01
1.202100e+01
1.939820e+01
1.228570e+01
1.945240e+01
1.223960e+01
1.973010e+01
1.251730e+01
1.978650e+01
1.246940e+01
2.007780e+01
1.276070e+01
2.013540e+01
1.271170e+01
2.044060e+01
1.301690e+01
2.049650e+01
1.296950e+01
2.081620e+01
1.328920e+01
2.086140e+01
1.325100e+01
2.119660e+01
1.358630e+01
2.120460e+01
1.357990e+01
2.155700e+01
1.393230e+01
2.145210e+01
1.402260e+01
2.182650e+01
1.439690e+01
2.141320e+01
1.475470e+01
2.181160e+01
1.515300e+01
2.082280e+01
1.601470e+01
2.115900e+01
1.635090e+01
2.015100e+01
1.718540e+01
2.054740e+01
1.758190e+01
2.014380e+01
1.792860e+01
2.053740e+01
1.832220e+01
2.043280e+01
1.841170e+01
2.081050e+01
1.878940e+01
2.081690e+01
1.878420e+01
2.117270e+01
1.914000e+01
2.121730e+01
1.910230e+01
2.154520e+01
1.943020e+01
2.159970e+01
1.938380e+01
2.189420e+01
1.967840e+01
2.194760e+01
1.963320e+01
2.220410e+01
1.988970e+01
2.225150e+01
1.984940e+01
2.246620e+01
2.006420e+01
2.250560e+01
2.003080e+01
2.267550e+01
2.020070e+01
2.270570e+01
2.017510e+01
2.282860e+01
2.029800e+01
2.284900e+01
2.028080e+01
2.292340e+01
2.035510e+01
2.293370e+01
2.034640e+01
2.295850e+01
2.037130e+01
</DataArray>
<DataArray type="Float32" Name="V2" format="ascii">
3.634710e-01
4.000000e-01
3.649670e-01
4.014700e-01
3.649670e-01
4.014700e-01
3.694480e-01
4.058750e-01
3.694480e-01
4.058750e-01
3.769050e-01
4.132050e-01
3.769050e-01
4.132050e-01
3.873210e-01
4.234430e-01
3.873210e-01
4.234430e-01
4.006690e-01
4.365640e-01
4.006690e-01
4.365640e-01
4.169190e-01
4.525380e-01
4.169190e-01
4.525380e-01
4.360310e-01
4.713250e-01
4.360310e-01
4.713250e-01
4.579600e-01
4.928810e-01
4.579600e-01
4.928810e-01
4.826540e-01
5.171550e-01
4.826540e-01
5.171550e-01
5.100520e-01
5.440880e-01
5.100520e-01
5.440880e-01
5.400890e-01
5.736150e-01
5.400890e-01
5.736150e-01
5.726920e-01
6.056650e-01
5.726920e-01
6.056650e-01
6.077820e-01
6.401600e-01
6.077820e-01
6.401600e-01
6.452720e-01
6.770160e-01
6.452720e-01
6.770160e-01
6.850730e-01
7.161430e-01
6.850730e-01
7.161430e-01
7.270840e-01
7.574440e-01
7.270840e-01
7.574440e-01
7.712030e-01
8.008170e-01
7.712030e-01
8.008170e-01
8.173200e-01
8.461540e-01
8.173200e-01
8.461540e-01
8.653190e-01
8.933430e-01
8.653190e-01
8.933430e-01
9.150780e-01
9.422610e-01
9.150780e-01
9.422610e-01
9.664740e-01
9.927900e-01
9.664740e-01
9.927900e-01
1.019370e+00
1.044800e+00
1.019370e+00
1.044800e+00
1.073640e+00
1.098150e+00
1.073640e+00
1.098150e+00
1.129140e+00
1.152710e+00
1.129140e+00
1.152710e+00
1.185720e+00
1.208330e+00
1.185720e+00
1.208330e+00
1.243230e+00
1.264860e+00
1.243230e+00
1.264860e+00
1.301520e+00
1.322160e+00
1.301520e+00
1.322160e+00
1.360440e+00
1.380080e+00
1.360440e+00
1.380080e+00
1.419810e+00
1.438440e+00
1.419810e+00
1.438440e+00
1.479490e+00
1.497100e+00
1.479490e+00
1.497100e+00
1.539280e+00
1.555890e+00
1.539280e+00
1.555890e+00
1.599030e+00
1.614690e+00
1.599030e+00
1.614690e+00
1.658480e+00
1.673350e+00
1.658480e+00
1.673350e+00
1.717370e+00
1.731880e+00
1.717370e+00
1.731880e+00
1.775060e+00
1.790280e+00
1.775060e+00
1.790280e+00
1.830420e+00
1.847080e+00
1.830420e+00
1.847080e+00
1.881720e+00
1.899450e+00
1.881720e+00
1.899450e+00
1.928560e+00
1.948140e+00
1.928560e+00
1.948140e+00
1.971090e+00
1.992610e+00
1.971090e+00
1.992610e+00
2.009300e+00
2.032590e+00
2.009300e+00
2.032590e+00
2.043100e+00
2.067920e+00
2.043100e+00
2.067920e+00
2.072460e+00
2.098550e+00
2.072460e+00
2.098550e+00
2.097330e+00
2.124450e+00
2.097330e+00
2.124450e+00
2.117690e+00
2.145630e+00
2.117690e+00
2.145630e+00
2.133530e+00
2.162080e+00
2.133530e+00
2.162080e+00
2.144850e+00
2.173830e+00
2.144850e+00
2.173830e+00
2.151640e+00
2.180870e+00
2.151640e+00
2.180870e+00
2.153900e+00
2.183210e+00
</DataArray>
<DataArray type="Float32" Name="V3" format="ascii">
0.000000e+00
0.000000e+00
3.954530e-02
3.834400e-02
3.954530e-02
3.834400e-02
7.893540e-02
7.653520e-02
7.893540e-02
7.653520e-02
1.180150e-01
1.144210e-01
1.180150e-01
1.144210e-01
1.566300e-01
1.518490e-01
1.566300e-01
1.518490e-01
1.946260e-01
1.886680e-01
1.946260e-01
1.886680e-01
2.318510e-01
2.247280e-01
2.318510e-01
2.247280e-01
2.681530e-01
2.598790e-01
2.681530e-01
2.598790e-01
3.033850e-01
2.939770e-01
3.033850e-01
2.939770e-01
3.373990e-01
3.268750e-01
3.373990e-01
3.268750e-01
3.700490e-01
3.584300e-01
3.700490e-01
3.584300e-01
4.011930e-01
3.885030e-01
4.011930e-01
3.885030e-01
4.306930e-01
4.169550e-01
4.306930e-01
4.169550e-01
4.584110e-01
4.436530e-01
4.584110e-01
4.436530e-01
4.842150e-01
4.684660e-01
4.842150e-01
4.684660e-01
5.079770e-01
4.912670e-01
5.079770e-01
4.912670e-01
5.295700e-01
5.119310e-01
5.295700e-01
5.119310e-01
5.488740e-01
5.303390e-01
5.488740e-01
5.303390e-01
5.657730e-01
5.463780e-01
5.657730e-01
5.463780e-01
5.801550e-01
5.599360e-01
5.801550e-01
5.599360e-01
5.919140e-01
5.709080e-01
5.919140e-01
5.709080e-01
6.009480e-01
5.791940e-01
6.009480e-01
5.791940e-01
6.071630e-01
5.847000e-01
6.071630e-01
5.847000e-01
6.104670e-01
5.873370e-01
6.104670e-01
5.873370e-01
6.107780e-01
5.870200e-01
6.107780e-01
5.870200e-01
6.080160e-01
5.836740e-01
6.080160e-01
5.836740e-01
6.021120e-01
5.772270e-01
6.021120e-01
5.772270e-01
5.930010e-01
5.676150e-01
5.930010e-01
5.676150e-01
5.806240e-01
5.547810e-01
5.806240e-01
5.547810e-01
5.649300e-01
5.386750e-01
5.649300e-01
5.386750e-01
5.458750e-01
5.192550e-01
5.458750e-01
5.192550e-01
5.234230e-01
4.964920e-01
5.234230e-01
4.964920e-01
4.975270e-01
4.703580e-01
4.975270e-01
4.703580e-01
4.681580e-01
4.408750e-01
4.681580e-01
4.408750e-01
4.352300e-01
4.080710e-01
4.352300e-01
4.080710e-01
3.987210e-01
3.720260e-01
3.987210e-01
3.720260e-01
3.597020e-01
3.329320e-01
3.597020e-01
3.329320e-01
3.215200e-01
2.958270e-01
3.215200e-01
2.958270e-01
2.855160e-01
2.616140e-01
2.855160e-01
2.616140e-01
2.516020e-01
2.298390e-01
2.516020e-01
2.298390e-01
2.195140e-01
2.000670e-01
2.195140e-01
2.000670e-01
1.890030e-01
1.719570e-01
1.890030e-01
1.719570e-01
1.597910e-01
1.451850e-01
1.597910e-01
1.451850e-01
1.316550e-01
1.194980e-01
1.316550e-01
1.194980e-01
1.043600e-01
9.465100e-02
1.043600e-01
9.465100e-02
7.772660e-02
7.045620e-02
7.772660e-02
7.045620e-02
5.155890e-02
4.671870e-02
5.155890e-02
4.671870e-02
2.570750e-02
2.328910e-02
2.570750e-02
2.328910e-02
0.000000e+00
0.000000e+00
</DataArray>
<DataArray type="Float32" Name="V4" format="ascii">
9.000000e-01
1.000000e+00
9.000000e-01
1.000000e+00
9.000000e-01
1.000000e+00
9.000000e-01
1.000000e+00
9.000000e-01
1.000000e+00
9.000000e-01
1.000000e+00
9.000000e-01
1.000000e+00
9.000000e-01
1.000000e+00
9.000000e-01
1.000000e+00
9.000000e-01
1.000000e+00
9.000000e-01
1.000000e+00
9.000000e-01
1.000000e+00
9.000000e-01
1.000000e+00
9.000000e-01
1.000000e+00
9.000000e-01
1.000000e+00
9.000000e-01
1.000000e+00
9.000000e-01
1.000000e+00
9.000000e-01
1.000000e+00
9.000000e-01
1.000000e+00
9.000000e-01
1.000000e+00
9.000000e-01
1.000000e+00
9.000000e-01
1.000000e+00
9.000000e-01
1.000000e+00
9.000000e-01
1.000000e+00
9.000000e-01
1.000000e+00
9.000000e-01
1.000000e+00
9.000000e-01
1.000000e+00
9.000000e-01
1.000000e+00
9.000000e-01
1.000000e+00
9.000000e-01
1.000000e+00
9.000000e-01
1.000000e+00
9.000000e-01
1.000000e+00
9.000000e-01
1.000000e+00
9.000000e-01
1.000000e+00
9.000000e-01
1.000000e+00
9.000000e-01
1.000000e+00
9.000000e-01
1.000000e+00
9.000000e-01
1.000000e+00
9.000000e-01
1.000000e+00
9.000000e-01
1.000000e+00
9.000000e-01
1.000000e+00
9.000000e-01
1.000000e+00
9.000000e-01
1.000000e+00
9.000000e-01
1.000000e+00
9.000000e-01
1.000000e+00
9.000000e-01
1.000000e+00
9.000000e-01
1.000000e+00
9.000000e-01
1.000000e+00
9.000000e-01
1.000000e+00
9.000000e-01
1.000000e+00
9.000000e-01
1.000000e+00
9.000000e-01
1.000000e+00
9.000000e-01
1.000000e+00
9.000000e-01
1.000000e+00
9.000000e-01
1.000000e+00
9.000000e-01
1.000000e+00
9.000000e-01
1.000000e+00
9.000000e-01
1.000000e+00
9.000000e-01
1.000000e+00
9.000000e-01
1.000000e+00
9.000000e-01
1.000000e+00
9.000000e-01
1.000000e+00
9.000000e-01
1.000000e+00
9.000000e-01
1.000000e+00
9.000000e-01
1.000000e+00
9.000000e-01
1.000000e+00
9.000000e-01
1.000000e+00
9.000000e-01
1.000000e+00
9.000000e-01
1.000000e+00
9.000000e-01
1.000000e+00
9.000000e-01
1.000000e+00
9.000000e-01
1.000000e+00
9.000000e-01
1.000000e+00
9.000000e-01
1.000000e+00
9.000000e-01
1.000000e+00
9.000000e-01
1.000000e+00
9.000000e-01
1.000000e+00
9.000000e-01
1.000000e+00
9.000000e-01
1.000000e+00
9.000000e-01
1.000000e+00
9.000000e-01
1.000000e+00
9.000000e-01
1.000000e+00
9.000000e-01
1.000000e+00
9.000000e-01
1.000000e+00
9.000000e-01
1.000000e+00
9.000000e-01
1.000000e+00
9.000000e-01
1.000000e+00
9.000000e-01
1.000000e+00
9.000000e-01
1.000000e+00
9.000000e-01
1.000000e+00
9.000000e-01
1.000000e+00
9.000000e-01
1.000000e+00
9.000000e-01
1.000000e+00
9.000000e-01
1.000000e+00
9.000000e-01
1.000000e+00
9.000000e-01
1.000000e+00
</DataArray>
<DataArray type="Float32" Name="V5" format="ascii">
0.000000e+00
0.000000e+00
3.272490e-02
3.272490e-02
3.272490e-02
3.272490e-02
6.544980e-02
6.544980e-02
6.544980e-02
6.544980e-02
9.817480e-02
9.817480e-02
9.817480e-02
9.817480e-02
1.309000e-01
1.309000e-01
1.309000e-01
1.309000e-01
1.636250e-01
1.636250e-01
1.636250e-01
1.636250e-01
1.963500e-01
1.963500e-01
1.963500e-01
1.963500e-01
2.290740e-01
2.290740e-01
2.290740e-01
2.290740e-01
2.617990e-01
2.617990e-01
2.617990e-01
2.617990e-01
2.945240e-01
2.945240e-01
2.945240e-01
2.945240e-01
3.272490e-01
3.272490e-01
3.272490e-01
3.272490e-01
3.599740e-01
3.599740e-01
3.599740e-01
3.599740e-01
3.926990e-01
3.926990e-01
3.926990e-01
3.926990e-01
4.254240e-01
4.254240e-01
4.254240e-01
4.254240e-01
4.581490e-01
4.581490e-01
4.581490e-01
4.581490e-01
4.908740e-01
4.908740e-01
4.908740e-01
4.908740e-01
5.235990e-01
5.235990e-01
5.235990e-01
5.235990e-01
5.563240e-01
5.563240e-01
5.563240e-01
5.563240e-01
5.890490e-01
5.890490e-01
5.890490e-01
5.890490e-01
6.217740e-01
6.217740e-01
6.217740e-01
6.217740e-01
6.544980e-01
6.544980e-01
6.544980e-01
6.544980e-01
6.872230e-01
6.872230e-01
6.872230e-01
6.872230e-01
7.199480e-01
7.199480e-01
7.199480e-01
7.199480e-01
7.526730e-01
7.526730e-01
7.526730e-01
7.526730e-01
7.853980e-01
7.853980e-01
7.853980e-01
7.853980e-01
8.181230e-01
8.181230e-01
8.181230e-01
8.181230e-01
8.508480e-01
8.508480e-01
8.508480e-01
8.508480e-01
8.835730e-01
8.835730e-01
8.835730e-01
8.835730e-01
9.162980e-01
9.162980e-01
9.162980e-01
9.162980e-01
9.490230e-01
9.490230e-01
9.490230e-01
9.490230e-01
9.817480e-01
9.817480e-01
9.817480e-01
9.817480e-01
1.014470e+00
1.014470e+00
1.014470e+00
1.014470e+00
1.047200e+00
1.047200e+00
1.047200e+00
1.047200e+00
1.079920e+00
1.079920e+00
1.079920e+00
1.079920e+00
1.112650e+00
1.112650e+00
1.112650e+00
1.112650e+00
1.145370e+00
1.145370e+00
1.145370e+00
1.145370e+00
1.178100e+00
1.178100e+00
1.178100e+00
1.178100e+00
1.210820e+00
1.210820e+00
1.210820e+00
1.210820e+00
1.243550e+00
1.243550e+00
1.243550e+00
1.243550e+00
1.276270e+00
1.276270e+00
1.276270e+00
1.276270e+00
1.309000e+00
1.309000e+00
1.309000e+00
1.309000e+00
1.341720e+00
1.341720e+00
1.341720e+00
1.341720e+00
1.374450e+00
1.374450e+00
1.374450e+00
1.374450e+00
1.407170e+00
1.407170e+00
1.407170e+00
1.407170e+00
1.439900e+00
1.439900e+00
1.439900e+00
1.439900e+00
1.472620e+00
1.472620e+00
1.472620e+00
1.472620e+00
1.505350e+00
1.505350e+00
1.505350e+00
1.505350e+00
1.538070e+00
1.538070e+00
1.538070e+00
1.538070e+00
1.570800e+00
1.570800e+00
</DataArray>
</PointData>
</Piece></UnstructuredGrid>
</VTKFile>
