<?xml version="1.0"?>
<VTKFile type="UnstructuredGrid" version="0.1" byte_order="LittleEndian" compressor="vtkZLibDataCompressor">
<UnstructuredGrid>
<Piece NumberOfPoints="192" NumberOfCells="48">
<Points>
<DataArray type="Float32" NumberOfComponents="3" format="ascii">
0.000000e+00 3.504990e-01 0.000000e+00
0.000000e+00 3.812500e-01 0.000000e+00
5.609110e-02 3.505040e-01 0.000000e+00
5.608620e-02 3.812500e-01 0.000000e+00
5.609110e-02 3.505040e-01 0.000000e+00
5.608620e-02 3.812500e-01 0.000000e+00
1.121790e-01 3.505170e-01 0.000000e+00
1.121690e-01 3.812500e-01 0.000000e+00
1.121790e-01 3.505170e-01 0.000000e+00
1.121690e-01 3.812500e-01 0.000000e+00
1.682610e-01 3.505390e-01 0.000000e+00
1.682470e-01 3.812500e-01 0.000000e+00
1.682610e-01 3.505390e-01 0.000000e+00
1.682470e-01 3.812500e-01 0.000000e+00
2.243340e-01 3.505690e-01 0.000000e+00
2.243150e-01 3.812500e-01 0.000000e+00
2.243340e-01 3.505690e-01 0.000000e+00
2.243150e-01 3.812500e-01 0.000000e+00
2.803940e-01 3.506080e-01 0.000000e+00
2.803700e-01 3.812500e-01 0.000000e+00
2.803940e-01 3.506080e-01 0.000000e+00
2.803700e-01 3.812500e-01 0.000000e+00
3.364380e-01 3.506550e-01 0.000000e+00
3.364090e-01 3.812500e-01 0.000000e+00
3.364380e-01 3.506550e-01 0.000000e+00
3.364090e-01 3.812500e-01 0.000000e+00
3.924610e-01 3.507110e-01 0.000000e+00
3.924270e-01 3.812500e-01 0.000000e+00
3.924610e-01 3.507110e-01 0.000000e+00
3.924270e-01 3.812500e-01 0.000000e+00
4.484630e-01 3.507760e-01 0.000000e+00
4.484240e-01 3.812500e-01 0.000000e+00
4.484630e-01 3.507760e-01 0.000000e+00
4.484240e-01 3.812500e-01 0.000000e+00
5.044390e-01 3.508480e-01 0.000000e+00
5.043950e-01 3.812500e-01 0.000000e+00
5.044390e-01 3.508480e-01 0.000000e+00
5.043950e-01 3.812500e-01 0.000000e+00
5.603850e-01 3.509290e-01 0.000000e+00
5.603360e-01 3.812500e-01 0.000000e+00
5.603850e-01 3.509290e-01 0.000000e+00
5.603360e-01 3.812500e-01 0.000000e+00
6.162960e-01 3.510180e-01 0.000000e+00
6.162430e-01 3.812500e-01 0.000000e+00
6.162960e-01 3.510180e-01 0.000000e+00
6.162430e-01 3.812500e-01 0.000000e+00
6.721710e-01 3.511150e-01 0.000000e+00
6.721120e-01 3.812500e-01 0.000000e+00
6.721710e-01 3.511150e-01 0.000000e+00
6.721120e-01 3.812500e-01 0.000000e+00
7.280030e-01 3.512190e-01 0.000000e+00
7.279400e-01 3.812500e-01 0.000000e+00
7.280030e-01 3.512190e-01 0.000000e+00
7.279400e-01 3.812500e-01 0.000000e+00
7.837890e-01 3.513310e-01 0.000000e+00
7.837220e-01 3.812500e-01 0.000000e+00
7.837890e-01 3.513310e-01 0.000000e+00
7.837220e-01 3.812500e-01 0.000000e+00
8.395240e-01 3.514510e-01 0.000000e+00
8.394520e-01 3.812500e-01 0.000000e+00
8.395240e-01 3.514510e-01 0.000000e+00
8.394520e-01 3.812500e-01 0.000000e+00
8.952040e-01 3.515780e-01 0.000000e+00
8.951280e-01 3.812500e-01 0.000000e+00
8.952040e-01 3.515780e-01 0.000000e+00
8.951280e-01 3.812500e-01 0.000000e+00
9.508230e-01 3.517120e-01 0.000000e+00
9.507430e-01 3.812500e-01 0.000000e+00
9.508230e-01 3.517120e-01 0.000000e+00
9.507430e-01 3.812500e-01 0.000000e+00
1.006380e+00 3.518530e-01 0.000000e+00
1.006290e+00 3.812500e-01 0.000000e+00
1.006380e+00 3.518530e-01 0.000000e+00
1.006290e+00 3.812500e-01 0.000000e+00
1.061860e+00 3.520010e-01 0.000000e+00
1.061770e+00 3.812500e-01 0.000000e+00
1.061860e+00 3.520010e-01 0.000000e+00
1.061770e+00 3.812500e-01 0.000000e+00
1.117260e+00 3.521550e-01 0.000000e+00
1.117170e+00 3.812500e-01 0.000000e+00
1.117260e+00 3.521550e-01 0.000000e+00
1.117170e+00 3.812500e-01 0.000000e+00
1.172590e+00 3.523160e-01 0.000000e+00
1.172490e+00 3.812500e-01 0.000000e+00
1.172590e+00 3.523160e-01 0.000000e+00
1.172490e+00 3.812500e-01 0.000000e+00
1.227820e+00 3.524830e-01 0.000000e+00
1.227720e+00 3.812500e-01 0.000000e+00
1.227820e+00 3.524830e-01 0.000000e+00
1.227720e+00 3.812500e-01 0.000000e+00
1.282960e+00 3.526550e-01 0.000000e+00
1.282860e+00 3.812500e-01 0.000000e+00
1.282960e+00 3.526550e-01 0.000000e+00
1.282860e+00 3.812500e-01 0.000000e+00
1.338000e+00 3.528340e-01 0.000000e+00
1.337890e+00 3.812500e-01 0.000000e+00
1.338000e+00 3.528340e-01 0.000000e+00
1.337890e+00 3.812500e-01 0.000000e+00
1.392920e+00 3.530170e-01 0.000000e+00
1.392810e+00 3.812500e-01 0.000000e+00
1.392920e+00 3.530170e-01 0.000000e+00
1.392810e+00 3.812500e-01 0.000000e+00
1.447730e+00 3.532060e-01 0.000000e+00
1.447620e+00 3.812500e-01 0.000000e+00
1.447730e+00 3.532060e-01 0.000000e+00
1.447620e+00 3.812500e-01 0.000000e+00
1.502410e+00 3.534000e-01 0.000000e+00
1.502300e+00 3.812500e-01 0.000000e+00
1.502410e+00 3.534000e-01 0.000000e+00
1.502300e+00 3.812500e-01 0.000000e+00
1.556960e+00 3.535980e-01 0.000000e+00
1.556840e+00 3.812500e-01 0.000000e+00
1.556960e+00 3.535980e-01 0.000000e+00
1.556840e+00 3.812500e-01 0.000000e+00
1.611370e+00 3.538010e-01 0.000000e+00
1.611240e+00 3.812500e-01 0.000000e+00
1.611370e+00 3.538010e-01 0.000000e+00
1.611240e+00 3.812500e-01 0.000000e+00
1.665620e+00 3.540090e-01 0.000000e+00
1.665500e+00 3.812500e-01 0.000000e+00
1.665620e+00 3.540090e-01 0.000000e+00
1.665500e+00 3.812500e-01 0.000000e+00
1.719700e+00 3.542200e-01 0.000000e+00
1.719590e+00 3.812500e-01 0.000000e+00
1.719700e+00 3.542200e-01 0.000000e+00
1.719590e+00 3.812500e-01 0.000000e+00
1.773620e+00 3.544350e-01 0.000000e+00
1.773520e+00 3.812500e-01 0.000000e+00
1.773620e+00 3.544350e-01 0.000000e+00
1.773520e+00 3.812500e-01 0.000000e+00
1.827320e+00 3.546530e-01 0.000000e+00
1.827290e+00 3.812500e-01 0.000000e+00
1.827320e+00 3.546530e-01 0.000000e+00
1.827290e+00 3.812500e-01 0.000000e+00
1.880790e+00 3.548760e-01 0.000000e+00
1.880940e+00 3.812500e-01 0.000000e+00
1.880790e+00 3.548760e-01 0.000000e+00
1.880940e+00 3.812500e-01 0.000000e+00
1.933890e+00 3.551040e-01 0.000000e+00
1.934560e+00 3.812500e-01 0.000000e+00
1.933890e+00 3.551040e-01 0.000000e+00
1.934560e+00 3.812500e-01 0.000000e+00
1.986350e+00 3.553110e-01 0.000000e+00
1.988390e+00 3.812500e-01 0.000000e+00
1.986350e+00 3.553110e-01 0.000000e+00
1.988390e+00 3.812500e-01 0.000000e+00
2.037520e+00 3.548260e-01 0.000000e+00
2.041960e+00 3.812440e-01 0.000000e+00
2.037520e+00 3.548260e-01 0.000000e+00
2.041960e+00 3.812440e-01 0.000000e+00
2.086990e+00 3.492780e-01 0.000000e+00
2.093270e+00 3.750120e-01 0.000000e+00
2.086990e+00 3.492780e-01 0.000000e+00
2.093270e+00 3.750120e-01 0.000000e+00
2.134120e+00 3.363540e-01 0.000000e+00
2.143370e+00 3.609020e-01 0.000000e+00
2.134120e+00 3.363540e-01 0.000000e+00
2.143370e+00 3.609020e-01 0.000000e+00
2.178430e+00 3.166120e-01 0.000000e+00
2.190840e+00 3.394690e-01 0.000000e+00
2.178430e+00 3.166120e-01 0.000000e+00
2.190840e+00 3.394690e-01 0.000000e+00
2.219210e+00 2.907150e-01 0.000000e+00
2.234570e+00 3.114490e-01 0.000000e+00
2.219210e+00 2.907150e-01 0.000000e+00
2.234570e+00 3.114490e-01 0.000000e+00
2.255820e+00 2.593580e-01 0.000000e+00
2.273790e+00 2.776320e-01 0.000000e+00
2.255820e+00 2.593580e-01 0.000000e+00
2.273790e+00 2.776320e-01 0.000000e+00
2.287670e+00 2.233170e-01 0.000000e+00
2.307840e+00 2.388730e-01 0.000000e+00
2.287670e+00 2.233170e-01 0.000000e+00
2.307840e+00 2.388730e-01 0.000000e+00
2.314310e+00 1.833450e-01 0.000000e+00
2.336280e+00 1.959920e-01 0.000000e+00
2.314310e+00 1.833450e-01 0.000000e+00
2.336280e+00 1.959920e-01 0.000000e+00
2.335380e+00 1.402510e-01 0.000000e+00
2.358730e+00 1.498480e-01 0.000000e+00
2.335380e+00 1.402510e-01 0.000000e+00
2.358730e+00 1.498480e-01 0.000000e+00
2.350620e+00 9.479600e-02 0.000000e+00
2.374950e+00 1.012450e-01 0.000000e+00
2.350620e+00 9.479600e-02 0.000000e+00
2.374950e+00 1.012450e-01 0.000000e+00
2.359830e+00 4.779140e-02 0.000000e+00
2.384750e+00 5.103130e-02 0.000000e+00
2.359830e+00 4.779140e-02 0.000000e+00
2.384750e+00 5.103130e-02 0.000000e+00
2.362920e+00 -8.679470e-06 0.000000e+00
2.388030e+00 -8.771720e-06 0.000000e+00
</DataArray>
</Points>
<Cells>
<DataArray type="Int32" Name="connectivity" format="ascii">
0 1 3 2
4 5 7 6
8 9 11 10
12 13 15 14
16 17 19 18
20 21 23 22
24 25 27 26
28 29 31 30
32 33 35 34
36 37 39 38
40 41 43 42
44 45 47 46
48 49 51 50
52 53 55 54
56 57 59 58
60 61 63 62
64 65 67 66
68 69 71 70
72 73 75 74
76 77 79 78
80 81 83 82
84 85 87 86
88 89 91 90
92 93 95 94
96 97 99 98
100 101 103 102
104 105 107 106
108 109 111 110
112 113 115 114
116 117 119 118
120 121 123 122
124 125 127 126
128 129 131 130
132 133 135 134
136 137 139 138
140 141 143 142
144 145 147 146
148 149 151 150
152 153 155 154
156 157 159 158
160 161 163 162
164 165 167 166
168 169 171 170
172 173 175 174
176 177 179 178
180 181 183 182
184 185 187 186
188 189 191 190
</DataArray>
<DataArray type="Int32" Name="offsets" format="ascii">
4
8
12
16
20
24
28
32
36
40
44
48
52
56
60
64
68
72
76
80
84
88
92
96
100
104
108
112
116
120
124
128
132
136
140
144
148
152
156
160
164
168
172
176
180
184
188
192
</DataArray>
<DataArray type="UInt8" Name="types" format="ascii">
9
9
9
9
9
9
9
9
9
9
9
9
9
9
9
9
9
9
9
9
9
9
9
9
9
9
9
9
9
9
9
9
9
9
9
9
9
9
9
9
9
9
9
9
9
9
9
9
</DataArray>
</Cells>
<PointData>
<DataArray type="Float32" Name="V1" format="ascii">
2.153400e+01
1.355590e+01
2.154040e+01
1.356230e+01
2.154300e+01
1.356080e+01
2.155810e+01
1.357590e+01
2.156300e+01
1.357280e+01
2.158890e+01
1.359870e+01
2.159580e+01
1.359350e+01
2.163240e+01
1.363010e+01
2.164140e+01
1.362300e+01
2.168870e+01
1.367030e+01
2.169980e+01
1.366130e+01
2.175780e+01
1.371930e+01
2.177110e+01
1.370840e+01
2.183990e+01
1.377710e+01
2.185530e+01
1.376430e+01
2.193500e+01
1.384390e+01
2.195270e+01
1.382910e+01
2.204320e+01
1.391970e+01
2.206310e+01
1.390300e+01
2.216470e+01
1.400450e+01
2.218690e+01
1.398590e+01
2.229960e+01
1.409850e+01
2.232410e+01
1.407790e+01
2.244800e+01
1.420180e+01
2.247490e+01
1.417920e+01
2.261010e+01
1.431440e+01
2.263940e+01
1.428980e+01
2.278620e+01
1.443660e+01
2.281780e+01
1.441000e+01
2.297630e+01
1.456840e+01
2.301030e+01
1.453970e+01
2.318070e+01
1.471000e+01
2.321720e+01
1.467920e+01
2.339960e+01
1.486160e+01
2.343870e+01
1.482860e+01
2.363330e+01
1.502320e+01
2.367500e+01
1.498810e+01
2.388210e+01
1.519520e+01
2.392630e+01
1.515780e+01
2.414610e+01
1.537760e+01
2.419310e+01
1.533800e+01
2.442580e+01
1.557070e+01
2.447550e+01
1.552880e+01
2.472140e+01
1.577480e+01
2.477390e+01
1.573050e+01
2.503330e+01
1.599000e+01
2.508860e+01
1.594330e+01
2.536180e+01
1.621660e+01
2.542000e+01
1.616750e+01
2.570730e+01
1.645480e+01
2.576850e+01
1.640330e+01
2.607030e+01
1.670500e+01
2.613450e+01
1.665090e+01
2.645100e+01
1.696750e+01
2.651830e+01
1.691080e+01
2.685000e+01
1.724250e+01
2.692030e+01
1.718340e+01
2.726760e+01
1.753070e+01
2.734060e+01
1.746920e+01
2.770400e+01
1.783250e+01
2.777900e+01
1.776940e+01
2.815880e+01
1.814920e+01
2.823320e+01
1.808680e+01
2.863020e+01
1.848380e+01
2.869600e+01
1.842860e+01
2.911100e+01
1.884360e+01
2.914550e+01
1.881520e+01
2.958060e+01
1.925030e+01
2.951720e+01
1.930520e+01
2.997700e+01
1.976500e+01
2.963170e+01
2.006030e+01
3.012430e+01
2.055290e+01
2.912880e+01
2.146540e+01
2.951180e+01
2.184840e+01
2.812150e+01
2.288930e+01
2.861130e+01
2.337910e+01
2.800670e+01
2.389940e+01
2.849960e+01
2.439230e+01
2.833480e+01
2.453050e+01
2.880340e+01
2.499910e+01
2.880020e+01
2.500150e+01
2.923610e+01
2.543750e+01
2.928670e+01
2.539470e+01
2.968190e+01
2.579000e+01
2.974600e+01
2.573620e+01
3.009300e+01
2.608320e+01
3.015460e+01
2.603140e+01
3.044680e+01
2.632370e+01
3.049970e+01
2.627940e+01
3.073210e+01
2.651180e+01
3.077320e+01
2.647740e+01
3.094190e+01
2.664600e+01
3.096990e+01
2.662260e+01
3.107220e+01
2.672490e+01
3.108640e+01
2.671300e+01
3.112060e+01
2.674720e+01
</DataArray>
<DataArray type="Float32" Name="V2" format="ascii">
3.504990e-01
3.812500e-01
3.521510e-01
3.828810e-01
3.521510e-01
3.828810e-01
3.571030e-01
3.877700e-01
3.571030e-01
3.877700e-01
3.653430e-01
3.959050e-01
3.653430e-01
3.959050e-01
3.768510e-01
4.072670e-01
3.768510e-01
4.072670e-01
3.916000e-01
4.218290e-01
3.916000e-01
4.218290e-01
4.095540e-01
4.395550e-01
4.095540e-01
4.395550e-01
4.306680e-01
4.604010e-01
4.306680e-01
4.604010e-01
4.548940e-01
4.843200e-01
4.548940e-01
4.843200e-01
4.821720e-01
5.112520e-01
4.821720e-01
5.112520e-01
5.124350e-01
5.411310e-01
5.124350e-01
5.411310e-01
5.456100e-01
5.738860e-01
5.456100e-01
5.738860e-01
5.816160e-01
6.094350e-01
5.816160e-01
6.094350e-01
6.203650e-01
6.476930e-01
6.203650e-01
6.476930e-01
6.617600e-01
6.885640e-01
6.617600e-01
6.885640e-01
7.057010e-01
7.319480e-01
7.057010e-01
7.319480e-01
7.520780e-01
7.777360e-01
7.520780e-01
7.777360e-01
8.007740e-01
8.258150e-01
8.007740e-01
8.258150e-01
8.516690e-01
8.760640e-01
8.516690e-01
8.760640e-01
9.046330e-01
9.283560e-01
9.046330e-01
9.283560e-01
9.595310e-01
9.825570e-01
9.595310e-01
9.825570e-01
1.016230e+00
1.038530e+00
1.016230e+00
1.038530e+00
1.074570e+00
1.096130e+00
1.074570e+00
1.096130e+00
1.134410e+00
1.155210e+00
1.134410e+00
1.155210e+00
1.195600e+00
1.215610e+00
1.195600e+00
1.215610e+00
1.257960e+00
1.277180e+00
1.257960e+00
1.277180e+00
1.321350e+00
1.339750e+00
1.321350e+00
1.339750e+00
1.385580e+00
1.403150e+00
1.385580e+00
1.403150e+00
1.450480e+00
1.467220e+00
1.450480e+00
1.467220e+00
1.515880e+00
1.531760e+00
1.515880e+00
1.531760e+00
1.581590e+00
1.596620e+00
1.581590e+00
1.596620e+00
1.647430e+00
1.661600e+00
1.647430e+00
1.661600e+00
1.713220e+00
1.726540e+00
1.713220e+00
1.726540e+00
1.778740e+00
1.791240e+00
1.778740e+00
1.791240e+00
1.843790e+00
1.855590e+00
1.843790e+00
1.855590e+00
1.908060e+00
1.919460e+00
1.908060e+00
1.919460e+00
1.971120e+00
1.982930e+00
1.971120e+00
1.982930e+00
2.031920e+00
2.045380e+00
2.031920e+00
2.045380e+00
2.088500e+00
2.102720e+00
2.088500e+00
2.102720e+00
2.139860e+00
2.155840e+00
2.139860e+00
2.155840e+00
2.186150e+00
2.204050e+00
2.186150e+00
2.204050e+00
2.227250e+00
2.246920e+00
2.227250e+00
2.246920e+00
2.263070e+00
2.284260e+00
2.263070e+00
2.284260e+00
2.293490e+00
2.315920e+00
2.293490e+00
2.315920e+00
2.318450e+00
2.341870e+00
2.318450e+00
2.341870e+00
2.337880e+00
2.362060e+00
2.337880e+00
2.362060e+00
2.351790e+00
2.376490e+00
2.351790e+00
2.376490e+00
2.360130e+00
2.385140e+00
2.360130e+00
2.385140e+00
2.362920e+00
2.388030e+00
</DataArray>
<DataArray type="Float32" Name="V3" format="ascii">
0.000000e+00
0.000000e+00
4.459290e-02
4.358200e-02
4.459290e-02
4.358200e-02
8.901430e-02
8.699440e-02
8.901430e-02
8.699440e-02
1.330920e-01
1.300670e-01
1.330920e-01
1.300670e-01
1.766570e-01
1.726320e-01
1.766570e-01
1.726320e-01
2.195370e-01
2.145210e-01
2.195370e-01
2.145210e-01
2.615640e-01
2.555660e-01
2.615640e-01
2.555660e-01
3.025710e-01
2.956030e-01
3.025710e-01
2.956030e-01
3.423950e-01
3.344700e-01
3.423950e-01
3.344700e-01
3.808720e-01
3.720050e-01
3.808720e-01
3.720050e-01
4.178430e-01
4.080500e-01
4.178430e-01
4.080500e-01
4.531500e-01
4.424500e-01
4.531500e-01
4.424500e-01
4.866390e-01
4.750530e-01
4.866390e-01
4.750530e-01
5.181610e-01
5.057100e-01
5.181610e-01
5.057100e-01
5.475690e-01
5.342760e-01
5.475690e-01
5.342760e-01
5.747210e-01
5.606110e-01
5.747210e-01
5.606110e-01
5.994800e-01
5.845780e-01
5.994800e-01
5.845780e-01
6.217130e-01
6.060470e-01
6.217130e-01
6.060470e-01
6.412930e-01
6.248900e-01
6.412930e-01
6.248900e-01
6.580960e-01
6.409870e-01
6.580960e-01
6.409870e-01
6.720080e-01
6.542220e-01
6.720080e-01
6.542220e-01
6.829160e-01
6.644860e-01
6.829160e-01
6.644860e-01
6.907180e-01
6.716750e-01
6.907180e-01
6.716750e-01
6.953150e-01
6.756910e-01
6.953150e-01
6.756910e-01
6.966160e-01
6.764460e-01
6.966160e-01
6.764460e-01
6.945370e-01
6.738540e-01
6.945370e-01
6.738540e-01
6.890010e-01
6.678410e-01
6.890010e-01
6.678410e-01
6.799390e-01
6.583360e-01
6.799390e-01
6.583360e-01
6.672900e-01
6.452790e-01
6.672900e-01
6.452790e-01
6.509990e-01
6.286160e-01
6.509990e-01
6.286160e-01
6.310220e-01
6.083020e-01
6.310220e-01
6.083020e-01
6.073210e-01
5.843040e-01
6.073210e-01
5.843040e-01
5.798580e-01
5.565860e-01
5.798580e-01
5.565860e-01
5.486230e-01
5.251500e-01
5.486230e-01
5.251500e-01
5.135700e-01
4.899820e-01
5.135700e-01
4.899820e-01
4.746810e-01
4.511430e-01
4.746810e-01
4.511430e-01
4.318720e-01
4.086900e-01
4.318720e-01
4.086900e-01
3.856390e-01
3.624780e-01
3.856390e-01
3.624780e-01
3.400930e-01
3.177430e-01
3.400930e-01
3.177430e-01
2.976350e-01
2.768280e-01
2.976350e-01
2.768280e-01
2.579890e-01
2.391230e-01
2.579890e-01
2.391230e-01
2.208150e-01
2.041100e-01
2.208150e-01
2.041100e-01
1.857060e-01
1.712890e-01
1.857060e-01
1.712890e-01
1.523200e-01
1.402570e-01
1.523200e-01
1.402570e-01
1.202940e-01
1.106220e-01
1.202940e-01
1.106220e-01
8.933500e-02
8.207270e-02
8.933500e-02
8.207270e-02
5.913650e-02
5.429260e-02
5.913650e-02
5.429260e-02
2.944900e-02
2.702620e-02
2.944900e-02
2.702620e-02
0.000000e+00
0.000000e+00
</DataArray>
<DataArray type="Float32" Name="V4" format="ascii">
9.000000e-01
1.000000e+00
9.000000e-01
1.000000e+00
9.000000e-01
1.000000e+00
9.000000e-01
1.000000e+00
9.000000e-01
1.000000e+00
9.000000e-01
1.000000e+00
9.000000e-01
1.000000e+00
9.000000e-01
1.000000e+00
9.000000e-01
1.000000e+00
9.000000e-01
1.000000e+00
9.000000e-01
1.000000e+00
9.000000e-01
1.000000e+00
9.000000e-01
1.000000e+00
9.000000e-01
1.000000e+00
9.000000e-01
1.000000e+00
9.000000e-01
1.000000e+00
9.000000e-01
1.000000e+00
9.000000e-01
1.000000e+00
9.000000e-01
1.000000e+00
9.000000e-01
1.000000e+00
9.000000e-01
1.000000e+00
9.000000e-01
1.000000e+00
9.000000e-01
1.000000e+00
9.000000e-01
1.000000e+00
9.000000e-01
1.000000e+00
9.000000e-01
1.000000e+00
9.000000e-01
1.000000e+00
9.000000e-01
1.000000e+00
9.000000e-01
1.000000e+00
9.000000e-01
1.000000e+00
9.000000e-01
1.000000e+00
9.000000e-01
1.000000e+00
9.000000e-01
1.000000e+00
9.000000e-01
1.000000e+00
9.000000e-01
1.000000e+00
9.000000e-01
1.000000e+00
9.000000e-01
1.000000e+00
9.000000e-01
1.000000e+00
9.000000e-01
1.000000e+00
9.000000e-01
1.000000e+00
9.000000e-01
1.000000e+00
9.000000e-01
1.000000e+00
9.000000e-01
1.000000e+00
9.000000e-01
1.000000e+00
9.000000e-01
1.000000e+00
9.000000e-01
1.000000e+00
9.000000e-01
1.000000e+00
9.000000e-01
1.000000e+00
9.000000e-01
1.000000e+00
9.000000e-01
1.000000e+00
9.000000e-01
1.000000e+00
9.000000e-01
1.000000e+00
9.000000e-01
1.000000e+00
9.000000e-01
1.000000e+00
9.000000e-01
1.000000e+00
9.000000e-01
1.000000e+00
9.000000e-01
1.000000e+00
9.000000e-01
1.000000e+00
9.000000e-01
1.000000e+00
9.000000e-01
1.000000e+00
9.000000e-01
1.000000e+00
9.000000e-01
1.000000e+00
9.000000e-01
1.000000e+00
9.000000e-01
1.000000e+00
9.000000e-01
1.000000e+00
9.000000e-01
1.000000e+00
9.000000e-01
1.000000e+00
9.000000e-01
1.000000e+00
9.000000e-01
1.000000e+00
9.000000e-01
1.000000e+00
9.000000e-01
1.000000e+00
9.000000e-01
1.000000e+00
9.000000e-01
1.000000e+00
9.000000e-01
1.000000e+00
9.000000e-01
1.000000e+00
9.000000e-01
1.000000e+00
9.000000e-01
1.000000e+00
9.000000e-01
1.000000e+00
9.000000e-01
1.000000e+00
9.000000e-01
1.000000e+00
9.000000e-01
1.000000e+00
9.000000e-01
1.000000e+00
9.000000e-01
1.000000e+00
9.000000e-01
1.000000e+00
9.000000e-01
1.000000e+00
9.000000e-01
1.000000e+00
9.000000e-01
1.000000e+00
9.000000e-01
1.000000e+00
9.000000e-01
1.000000e+00
9.000000e-01
1.000000e+00
9.000000e-01
1.000000e+00
9.000000e-01
1.000000e+00
9.000000e-01
1.000000e+00
9.000000e-01
1.000000e+00
9.000000e-01
1.000000e+00
9.000000e-01
1.000000e+00
</DataArray>
<DataArray type="Float32" Name="V5" format="ascii">
0.000000e+00
0.000000e+00
3.272490e-02
3.272490e-02
3.272490e-02
3.272490e-02
6.544980e-02
6.544980e-02
6.544980e-02
6.544980e-02
9.817480e-02
9.817480e-02
9.817480e-02
9.817480e-02
1.309000e-01
1.309000e-01
1.309000e-01
1.309000e-01
1.636250e-01
1.636250e-01
1.636250e-01
1.636250e-01
1.963500e-01
1.963500e-01
1.963500e-01
1.963500e-01
2.290740e-01
2.290740e-01
2.290740e-01
2.290740e-01
2.617990e-01
2.617990e-01
2.617990e-01
2.617990e-01
2.945240e-01
2.945240e-01
2.945240e-01
2.945240e-01
3.272490e-01
3.272490e-01
3.272490e-01
3.272490e-01
3.599740e-01
3.599740e-01
3.599740e-01
3.599740e-01
3.926990e-01
3.926990e-01
3.926990e-01
3.926990e-01
4.254240e-01
4.254240e-01
4.254240e-01
4.254240e-01
4.581490e-01
4.581490e-01
4.581490e-01
4.581490e-01
4.908740e-01
4.908740e-01
4.908740e-01
4.908740e-01
5.235990e-01
5.235990e-01
5.235990e-01
5.235990e-01
5.563240e-01
5.563240e-01
5.563240e-01
5.563240e-01
5.890490e-01
5.890490e-01
5.890490e-01
5.890490e-01
6.217740e-01
6.217740e-01
6.217740e-01
6.217740e-01
6.544980e-01
6.544980e-01
6.544980e-01
6.544980e-01
6.872230e-01
6.872230e-01
6.872230e-01
6.872230e-01
7.199480e-01
7.199480e-01
7.199480e-01
7.199480e-01
7.526730e-01
7.526730e-01
7.526730e-01
7.526730e-01
7.853980e-01
7.853980e-01
7.853980e-01
7.853980e-01
8.181230e-01
8.181230e-01
8.181230e-01
8.181230e-01
8.508480e-01
8.508480e-01
8.508480e-01
8.508480e-01
8.835730e-01
8.835730e-01
8.835730e-01
8.835730e-01
9.162980e-01
9.162980e-01
9.162980e-01
9.162980e-01
9.490230e-01
9.490230e-01
9.490230e-01
9.490230e-01
9.817480e-01
9.817480e-01
9.817480e-01
9.817480e-01
1.014470e+00
1.014470e+00
1.014470e+00
1.014470e+00
1.047200e+00
1.047200e+00
1.047200e+00
1.047200e+00
1.079920e+00
1.079920e+00
1.079920e+00
1.079920e+00
1.112650e+00
1.112650e+00
1.112650e+00
1.112650e+00
1.145370e+00
1.145370e+00
1.145370e+00
1.145370e+00
1.178100e+00
1.178100e+00
1.178100e+00
1.178100e+00
1.210820e+00
1.210820e+00
1.210820e+00
1.210820e+00
1.243550e+00
1.243550e+00
1.243550e+00
1.243550e+00
1.276270e+00
1.276270e+00
1.276270e+00
1.276270e+00
1.309000e+00
1.309000e+00
1.309000e+00
1.309000e+00
1.341720e+00
1.341720e+00
1.341720e+00
1.341720e+00
1.374450e+00
1.374450e+00
1.374450e+00
1.374450e+00
1.407170e+00
1.407170e+00
1.407170e+00
1.407170e+00
1.439900e+00
1.439900e+00
1.439900e+00
1.439900e+00
1.472620e+00
1.472620e+00
1.472620e+00
1.472620e+00
1.505350e+00
1.505350e+00
1.505350e+00
1.505350e+00
1.538070e+00
1.538070e+00
1.538070e+00
1.538070e+00
1.570800e+00
1.570800e+00
</DataArray>
</PointData>
</Piece></UnstructuredGrid>
</VTKFile>
