<?xml version="1.0"?>
<VTKFile type="UnstructuredGrid" version="0.1" byte_order="LittleEndian" compressor="vtkZLibDataCompressor">
<UnstructuredGrid>
<Piece NumberOfPoints="192" NumberOfCells="48">
<Points>
<DataArray type="Float32" NumberOfComponents="3" format="ascii">
0.000000e+00 7.783570e-01 0.000000e+00
0.000000e+00 8.800000e-01 0.000000e+00
3.089120e-02 7.783750e-01 0.000000e+00
3.083120e-02 8.800000e-01 0.000000e+00
3.089120e-02 7.783750e-01 0.000000e+00
3.083120e-02 8.800000e-01 0.000000e+00
6.178140e-02 7.784300e-01 0.000000e+00
6.166530e-02 8.800000e-01 0.000000e+00
6.178140e-02 7.784300e-01 0.000000e+00
6.166530e-02 8.800000e-01 0.000000e+00
9.266680e-02 7.785280e-01 0.000000e+00
9.250890e-02 8.800000e-01 0.000000e+00
9.266680e-02 7.785280e-01 0.000000e+00
9.250890e-02 8.800000e-01 0.000000e+00
1.235380e-01 7.786790e-01 0.000000e+00
1.233770e-01 8.800000e-01 0.000000e+00
1.235380e-01 7.786790e-01 0.000000e+00
1.233770e-01 8.800000e-01 0.000000e+00
1.543720e-01 7.788930e-01 0.000000e+00
1.543000e-01 8.800000e-01 0.000000e+00
1.543720e-01 7.788930e-01 0.000000e+00
1.543000e-01 8.800000e-01 0.000000e+00
1.851230e-01 7.791770e-01 0.000000e+00
1.853280e-01 8.800000e-01 0.000000e+00
1.851230e-01 7.791770e-01 0.000000e+00
1.853280e-01 8.800000e-01 0.000000e+00
2.157060e-01 7.795120e-01 0.000000e+00
2.165330e-01 8.800000e-01 0.000000e+00
2.157060e-01 7.795120e-01 0.000000e+00
2.165330e-01 8.800000e-01 0.000000e+00
2.459900e-01 7.798140e-01 0.000000e+00
2.480040e-01 8.800000e-01 0.000000e+00
2.459900e-01 7.798140e-01 0.000000e+00
2.480040e-01 8.800000e-01 0.000000e+00
2.758190e-01 7.798610e-01 0.000000e+00
2.798120e-01 8.800000e-01 0.000000e+00
2.758190e-01 7.798610e-01 0.000000e+00
2.798120e-01 8.800000e-01 0.000000e+00
3.052040e-01 7.793720e-01 0.000000e+00
3.119110e-01 8.797420e-01 0.000000e+00
3.052040e-01 7.793720e-01 0.000000e+00
3.119110e-01 8.797420e-01 0.000000e+00
3.340840e-01 7.779740e-01 0.000000e+00
3.442410e-01 8.779460e-01 0.000000e+00
3.340840e-01 7.779740e-01 0.000000e+00
3.442410e-01 8.779460e-01 0.000000e+00
3.624310e-01 7.753950e-01 0.000000e+00
3.767570e-01 8.745740e-01 0.000000e+00
3.624310e-01 7.753950e-01 0.000000e+00
3.767570e-01 8.745740e-01 0.000000e+00
3.903130e-01 7.714240e-01 0.000000e+00
4.092890e-01 8.695170e-01 0.000000e+00
3.903130e-01 7.714240e-01 0.000000e+00
4.092890e-01 8.695170e-01 0.000000e+00
4.177490e-01 7.659630e-01 0.000000e+00
4.416530e-01 8.626750e-01 0.000000e+00
4.177490e-01 7.659630e-01 0.000000e+00
4.416530e-01 8.626750e-01 0.000000e+00
4.447220e-01 7.589680e-01 0.000000e+00
4.736690e-01 8.540070e-01 0.000000e+00
4.447220e-01 7.589680e-01 0.000000e+00
4.736690e-01 8.540070e-01 0.000000e+00
4.712020e-01 7.504310e-01 0.000000e+00
5.051790e-01 8.435220e-01 0.000000e+00
4.712020e-01 7.504310e-01 0.000000e+00
5.051790e-01 8.435220e-01 0.000000e+00
4.971510e-01 7.403710e-01 0.000000e+00
5.360440e-01 8.312720e-01 0.000000e+00
4.971510e-01 7.403710e-01 0.000000e+00
5.360440e-01 8.312720e-01 0.000000e+00
5.225270e-01 7.288300e-01 0.000000e+00
5.661530e-01 8.173360e-01 0.000000e+00
5.225270e-01 7.288300e-01 0.000000e+00
5.661530e-01 8.173360e-01 0.000000e+00
5.472920e-01 7.158640e-01 0.000000e+00
5.954200e-01 8.018100e-01 0.000000e+00
5.472920e-01 7.158640e-01 0.000000e+00
5.954200e-01 8.018100e-01 0.000000e+00
5.714120e-01 7.015420e-01 0.000000e+00
6.237820e-01 7.848010e-01 0.000000e+00
5.714120e-01 7.015420e-01 0.000000e+00
6.237820e-01 7.848010e-01 0.000000e+00
5.948540e-01 6.859370e-01 0.000000e+00
6.511960e-01 7.664170e-01 0.000000e+00
5.948540e-01 6.859370e-01 0.000000e+00
6.511960e-01 7.664170e-01 0.000000e+00
6.175920e-01 6.691260e-01 0.000000e+00
6.776330e-01 7.467640e-01 0.000000e+00
6.175920e-01 6.691260e-01 0.000000e+00
6.776330e-01 7.467640e-01 0.000000e+00
6.396050e-01 6.511860e-01 0.000000e+00
7.030800e-01 7.259440e-01 0.000000e+00
6.396050e-01 6.511860e-01 0.000000e+00
7.030800e-01 7.259440e-01 0.000000e+00
6.608730e-01 6.321940e-01 0.000000e+00
7.275300e-01 7.040500e-01 0.000000e+00
6.608730e-01 6.321940e-01 0.000000e+00
7.275300e-01 7.040500e-01 0.000000e+00
6.813820e-01 6.122220e-01 0.000000e+00
7.509840e-01 6.811670e-01 0.000000e+00
6.813820e-01 6.122220e-01 0.000000e+00
7.509840e-01 6.811670e-01 0.000000e+00
7.011190e-01 5.913390e-01 0.000000e+00
7.734480e-01 6.573740e-01 0.000000e+00
7.011190e-01 5.913390e-01 0.000000e+00
7.734480e-01 6.573740e-01 0.000000e+00
7.200710e-01 5.696110e-01 0.000000e+00
7.949250e-01 6.327380e-01 0.000000e+00
7.200710e-01 5.696110e-01 0.000000e+00
7.949250e-01 6.327380e-01 0.000000e+00
7.382290e-01 5.470990e-01 0.000000e+00
8.154240e-01 6.073230e-01 0.000000e+00
7.382290e-01 5.470990e-01 0.000000e+00
8.154240e-01 6.073230e-01 0.000000e+00
7.555840e-01 5.238600e-01 0.000000e+00
8.349510e-01 5.811850e-01 0.000000e+00
7.555840e-01 5.238600e-01 0.000000e+00
8.349510e-01 5.811850e-01 0.000000e+00
7.721260e-01 4.999470e-01 0.000000e+00
8.535080e-01 5.543740e-01 0.000000e+00
7.721260e-01 4.999470e-01 0.000000e+00
8.535080e-01 5.543740e-01 0.000000e+00
7.878460e-01 4.754090e-01 0.000000e+00
8.711010e-01 5.269370e-01 0.000000e+00
7.878460e-01 4.754090e-01 0.000000e+00
8.711010e-01 5.269370e-01 0.000000e+00
8.027360e-01 4.502920e-01 0.000000e+00
8.877290e-01 4.989150e-01 0.000000e+00
8.027360e-01 4.502920e-01 0.000000e+00
8.877290e-01 4.989150e-01 0.000000e+00
8.167860e-01 4.246400e-01 0.000000e+00
9.033920e-01 4.703500e-01 0.000000e+00
8.167860e-01 4.246400e-01 0.000000e+00
9.033920e-01 4.703500e-01 0.000000e+00
8.299870e-01 3.984920e-01 0.000000e+00
9.180870e-01 4.412770e-01 0.000000e+00
8.299870e-01 3.984920e-01 0.000000e+00
9.180870e-01 4.412770e-01 0.000000e+00
8.423300e-01 3.718880e-01 0.000000e+00
9.318110e-01 4.117330e-01 0.000000e+00
8.423300e-01 3.718880e-01 0.000000e+00
9.318110e-01 4.117330e-01 0.000000e+00
8.538040e-01 3.448650e-01 0.000000e+00
9.445570e-01 3.817510e-01 0.000000e+00
8.538040e-01 3.448650e-01 0.000000e+00
9.445570e-01 3.817510e-01 0.000000e+00
8.644020e-01 3.174570e-01 0.000000e+00
9.563210e-01 3.513670e-01 0.000000e+00
8.644020e-01 3.174570e-01 0.000000e+00
9.563210e-01 3.513670e-01 0.000000e+00
8.741140e-01 2.896990e-01 0.000000e+00
9.670960e-01 3.206120e-01 0.000000e+00
8.741140e-01 2.896990e-01 0.000000e+00
9.670960e-01 3.206120e-01 0.000000e+00
8.829310e-01 2.616250e-01 0.000000e+00
9.768730e-01 2.895200e-01 0.000000e+00
8.829310e-01 2.616250e-01 0.000000e+00
9.768730e-01 2.895200e-01 0.000000e+00
8.908440e-01 2.332660e-01 0.000000e+00
9.856460e-01 2.581240e-01 0.000000e+00
8.908440e-01 2.332660e-01 0.000000e+00
9.856460e-01 2.581240e-01 0.000000e+00
8.978470e-01 2.046570e-01 0.000000e+00
9.934060e-01 2.264560e-01 0.000000e+00
8.978470e-01 2.046570e-01 0.000000e+00
9.934060e-01 2.264560e-01 0.000000e+00
9.039310e-01 1.758270e-01 0.000000e+00
1.000150e+00 1.945500e-01 0.000000e+00
9.039310e-01 1.758270e-01 0.000000e+00
1.000150e+00 1.945500e-01 0.000000e+00
9.090910e-01 1.468100e-01 0.000000e+00
1.005870e+00 1.624400e-01 0.000000e+00
9.090910e-01 1.468100e-01 0.000000e+00
1.005870e+00 1.624400e-01 0.000000e+00
9.133200e-01 1.176350e-01 0.000000e+00
1.010550e+00 1.301580e-01 0.000000e+00
9.133200e-01 1.176350e-01 0.000000e+00
1.010550e+00 1.301580e-01 0.000000e+00
9.166150e-01 8.833610e-02 0.000000e+00
1.014200e+00 9.773900e-02 0.000000e+00
9.166150e-01 8.833610e-02 0.000000e+00
1.014200e+00 9.773900e-02 0.000000e+00
9.189710e-01 5.894280e-02 0.000000e+00
1.016810e+00 6.521670e-02 0.000000e+00
9.189710e-01 5.894280e-02 0.000000e+00
1.016810e+00 6.521670e-02 0.000000e+00
9.203850e-01 2.948710e-02 0.000000e+00
1.018380e+00 3.262560e-02 0.000000e+00
9.203850e-01 2.948710e-02 0.000000e+00
1.018380e+00 3.262560e-02 0.000000e+00
9.208570e-01 4.509060e-12 0.000000e+00
1.018900e+00 4.989140e-12 0.000000e+00
</DataArray>
</Points>
<Cells>
<DataArray type="Int32" Name="connectivity" format="ascii">
0 1 3 2
4 5 7 6
8 9 11 10
12 13 15 14
16 17 19 18
20 21 23 22
24 25 27 26
28 29 31 30
32 33 35 34
36 37 39 38
40 41 43 42
44 45 47 46
48 49 51 50
52 53 55 54
56 57 59 58
60 61 63 62
64 65 67 66
68 69 71 70
72 73 75 74
76 77 79 78
80 81 83 82
84 85 87 86
88 89 91 90
92 93 95 94
96 97 99 98
100 101 103 102
104 105 107 106
108 109 111 110
112 113 115 114
116 117 119 118
120 121 123 122
124 125 127 126
128 129 131 130
132 133 135 134
136 137 139 138
140 141 143 142
144 145 147 146
148 149 151 150
152 153 155 154
156 157 159 158
160 161 163 162
164 165 167 166
168 169 171 170
172 173 175 174
176 177 179 178
180 181 183 182
184 185 187 186
188 189 191 190
</DataArray>
<DataArray type="Int32" Name="offsets" format="ascii">
4
8
12
16
20
24
28
32
36
40
44
48
52
56
60
64
68
72
76
80
84
88
92
96
100
104
108
112
116
120
124
128
132
136
140
144
148
152
156
160
164
168
172
176
180
184
188
192
</DataArray>
<DataArray type="UInt8" Name="types" format="ascii">
9
9
9
9
9
9
9
9
9
9
9
9
9
9
9
9
9
9
9
9
9
9
9
9
9
9
9
9
9
9
9
9
9
9
9
9
9
9
9
9
9
9
9
9
9
9
9
9
</DataArray>
</Cells>
<PointData>
<DataArray type="Float32" Name="V1" format="ascii">
8.363230e-01
-1.235500e+00
8.373010e-01
-1.234520e+00
8.386380e-01
-1.235230e+00
8.406160e-01
-1.233250e+00
8.427380e-01
-1.234640e+00
8.456180e-01
-1.231760e+00
8.474080e-01
-1.232910e+00
8.499730e-01
-1.230340e+00
8.488590e-01
-1.228750e+00
8.496040e-01
-1.228010e+00
8.397750e-01
-1.218240e+00
8.375870e-01
-1.220430e+00
8.075090e-01
-1.191850e+00
8.037410e-01
-1.195620e+00
7.332190e-01
-1.129940e+00
7.365820e-01
-1.126580e+00
5.953470e-01
-9.966020e-01
6.307910e-01
-9.611580e-01
3.840540e-01
-7.137880e-01
4.614910e-01
-6.363510e-01
2.184150e-01
-4.023340e-01
2.539900e-01
-3.667590e-01
8.483400e-02
-2.125600e-01
1.085170e-01
-1.888760e-01
-2.213490e-02
-6.706350e-02
2.281370e-03
-4.264720e-02
-9.643350e-02
4.942450e-02
-7.128990e-02
7.456800e-02
-1.424880e-01
1.407920e-01
-1.177000e-01
1.655800e-01
-1.655550e-01
2.099850e-01
-1.419730e-01
2.335670e-01
-1.705180e-01
2.600060e-01
-1.487360e-01
2.817880e-01
-1.617890e-01
2.938520e-01
-1.421860e-01
3.134540e-01
-1.432440e-01
3.144030e-01
-1.260230e-01
3.316230e-01
-1.181830e-01
3.243290e-01
-1.033970e-01
3.391160e-01
-8.931580e-02
3.260350e-01
-7.690110e-02
3.384500e-01
-5.878420e-02
3.216220e-01
-4.859700e-02
3.318090e-01
-2.821510e-02
3.128700e-01
-2.005820e-02
3.210270e-01
1.213280e-03
3.012520e-01
7.565890e-03
3.076050e-01
2.869880e-02
2.879480e-01
3.348340e-02
2.927330e-01
5.374340e-02
2.738770e-01
5.719300e-02
2.773270e-01
7.608690e-02
2.597330e-01
7.842190e-02
2.620680e-01
9.564880e-02
2.460190e-01
9.707130e-02
2.474410e-01
1.124790e-01
2.330810e-01
1.131700e-01
2.337720e-01
1.267170e-01
2.211400e-01
1.268350e-01
2.212580e-01
1.385630e-01
2.103190e-01
1.382450e-01
2.100010e-01
1.482470e-01
2.006680e-01
1.476080e-01
2.000290e-01
1.560180e-01
1.921800e-01
1.551550e-01
1.913170e-01
1.621240e-01
1.848110e-01
1.611160e-01
1.838030e-01
1.668060e-01
1.784910e-01
1.657170e-01
1.774020e-01
1.702900e-01
1.731320e-01
1.691720e-01
1.720140e-01
1.727860e-01
1.686390e-01
1.716780e-01
1.675310e-01
1.744820e-01
1.649120e-01
1.734150e-01
1.638450e-01
1.755450e-01
1.618560e-01
1.745430e-01
1.608530e-01
1.761230e-01
1.593770e-01
1.752020e-01
1.584560e-01
1.763420e-01
1.573910e-01
1.755140e-01
1.565630e-01
1.763110e-01
1.558180e-01
1.755850e-01
1.550920e-01
1.761210e-01
1.545910e-01
1.755020e-01
1.539720e-01
1.758460e-01
1.536500e-01
1.753370e-01
1.531410e-01
1.755470e-01
1.529450e-01
1.751500e-01
1.525480e-01
1.752690e-01
1.524370e-01
1.749850e-01
1.521530e-01
1.750460e-01
1.520950e-01
1.748760e-01
1.519250e-01
1.749010e-01
1.519010e-01
1.748440e-01
1.518450e-01
</DataArray>
<DataArray type="Float32" Name="V2" format="ascii">
7.783570e-01
8.800000e-01
7.789690e-01
8.805380e-01
7.789690e-01
8.805380e-01
7.808040e-01
8.821490e-01
7.808040e-01
8.821490e-01
7.838620e-01
8.848300e-01
7.838620e-01
8.848300e-01
7.881420e-01
8.885750e-01
7.881420e-01
8.885750e-01
7.936360e-01
8.933810e-01
7.936360e-01
8.933810e-01
8.003210e-01
8.992470e-01
8.003210e-01
8.992470e-01
8.081310e-01
9.061810e-01
8.081310e-01
9.061810e-01
8.169090e-01
9.142030e-01
8.169090e-01
9.142030e-01
8.263470e-01
9.233330e-01
8.263470e-01
9.233330e-01
8.361160e-01
9.333150e-01
8.361160e-01
9.333150e-01
8.457910e-01
9.429340e-01
8.457910e-01
9.429340e-01
8.550680e-01
9.521790e-01
8.550680e-01
9.521790e-01
8.637480e-01
9.609280e-01
8.637480e-01
9.609280e-01
8.717370e-01
9.690480e-01
8.717370e-01
9.690480e-01
8.789910e-01
9.764530e-01
8.789910e-01
9.764530e-01
8.854930e-01
9.831010e-01
8.854930e-01
9.831010e-01
8.912540e-01
9.889850e-01
8.912540e-01
9.889850e-01
8.963000e-01
9.941270e-01
8.963000e-01
9.941270e-01
9.006730e-01
9.985670e-01
9.006730e-01
9.985670e-01
9.044240e-01
1.002360e+00
9.044240e-01
1.002360e+00
9.076080e-01
1.005560e+00
9.076080e-01
1.005560e+00
9.102820e-01
1.008240e+00
9.102820e-01
1.008240e+00
9.125060e-01
1.010460e+00
9.125060e-01
1.010460e+00
9.143370e-01
1.012280e+00
9.143370e-01
1.012280e+00
9.158260e-01
1.013760e+00
9.158260e-01
1.013760e+00
9.170260e-01
1.014950e+00
9.170260e-01
1.014950e+00
9.179800e-01
1.015890e+00
9.179800e-01
1.015890e+00
9.187300e-01
1.016630e+00
9.187300e-01
1.016630e+00
9.193110e-01
1.017210e+00
9.193110e-01
1.017210e+00
9.197550e-01
1.017660e+00
9.197550e-01
1.017660e+00
9.200890e-01
1.018000e+00
9.200890e-01
1.018000e+00
9.203360e-01
1.018250e+00
9.203360e-01
1.018250e+00
9.205150e-01
1.018440e+00
9.205150e-01
1.018440e+00
9.206420e-01
1.018580e+00
9.206420e-01
1.018580e+00
9.207290e-01
1.018680e+00
9.207290e-01
1.018680e+00
9.207860e-01
1.018750e+00
9.207860e-01
1.018750e+00
9.208230e-01
1.018800e+00
9.208230e-01
1.018800e+00
9.208450e-01
1.018830e+00
9.208450e-01
1.018830e+00
9.208580e-01
1.018850e+00
9.208580e-01
1.018850e+00
9.208630e-01
1.018870e+00
9.208630e-01
1.018870e+00
9.208650e-01
1.018880e+00
9.208650e-01
1.018880e+00
9.208640e-01
1.018890e+00
9.208640e-01
1.018890e+00
9.208630e-01
1.018890e+00
9.208630e-01
1.018890e+00
9.208610e-01
1.018890e+00
9.208610e-01
1.018890e+00
9.208590e-01
1.018900e+00
9.208590e-01
1.018900e+00
9.208580e-01
1.018900e+00
9.208580e-01
1.018900e+00
9.208570e-01
1.018900e+00
9.208570e-01
1.018900e+00
9.208570e-01
1.018900e+00
</DataArray>
<DataArray type="Float32" Name="V3" format="ascii">
0.000000e+00
0.000000e+00
5.407000e-03
2.021910e-03
5.407000e-03
2.021910e-03
1.073730e-02
3.978480e-03
1.073730e-02
3.978480e-03
1.591150e-02
5.808350e-03
1.591150e-02
5.808350e-03
2.084310e-02
7.458750e-03
2.084310e-02
7.458750e-03
2.543210e-02
8.891190e-03
2.543210e-02
8.891190e-03
2.955620e-02
1.008700e-02
2.955620e-02
1.008700e-02
3.306280e-02
1.104920e-02
3.306280e-02
1.104920e-02
3.577720e-02
1.179230e-02
3.577720e-02
1.179230e-02
3.756080e-02
1.231270e-02
3.756080e-02
1.231270e-02
3.848620e-02
1.257420e-02
3.848620e-02
1.257420e-02
3.863010e-02
1.292050e-02
3.863010e-02
1.292050e-02
3.811120e-02
1.339290e-02
3.811120e-02
1.339290e-02
3.715020e-02
1.395060e-02
3.715020e-02
1.395060e-02
3.589080e-02
1.455470e-02
3.589080e-02
1.455470e-02
3.443490e-02
1.516320e-02
3.443490e-02
1.516320e-02
3.285770e-02
1.573660e-02
3.285770e-02
1.573660e-02
3.121540e-02
1.624140e-02
3.121540e-02
1.624140e-02
2.954930e-02
1.665160e-02
2.954930e-02
1.665160e-02
2.789000e-02
1.694910e-02
2.789000e-02
1.694910e-02
2.625980e-02
1.712350e-02
2.625980e-02
1.712350e-02
2.467450e-02
1.717160e-02
2.467450e-02
1.717160e-02
2.314510e-02
1.709580e-02
2.314510e-02
1.709580e-02
2.167870e-02
1.690290e-02
2.167870e-02
1.690290e-02
2.027950e-02
1.660290e-02
2.027950e-02
1.660290e-02
1.894910e-02
1.620760e-02
1.894910e-02
1.620760e-02
1.768740e-02
1.572980e-02
1.768740e-02
1.572980e-02
1.649280e-02
1.518220e-02
1.649280e-02
1.518220e-02
1.536240e-02
1.457710e-02
1.536240e-02
1.457710e-02
1.429260e-02
1.392580e-02
1.429260e-02
1.392580e-02
1.327930e-02
1.323860e-02
1.327930e-02
1.323860e-02
1.231780e-02
1.252440e-02
1.231780e-02
1.252440e-02
1.140340e-02
1.179090e-02
1.140340e-02
1.179090e-02
1.053130e-02
1.104440e-02
1.053130e-02
1.104440e-02
9.696890e-03
1.029020e-02
9.696890e-03
1.029020e-02
8.895610e-03
9.532400e-03
8.895610e-03
9.532400e-03
8.123250e-03
8.774200e-03
8.123250e-03
8.774200e-03
7.375870e-03
8.017990e-03
7.375870e-03
8.017990e-03
6.649870e-03
7.265470e-03
6.649870e-03
7.265470e-03
5.942000e-03
6.517700e-03
5.942000e-03
6.517700e-03
5.249330e-03
5.775300e-03
5.249330e-03
5.775300e-03
4.569270e-03
5.038460e-03
4.569270e-03
5.038460e-03
3.899520e-03
4.307060e-03
3.899520e-03
4.307060e-03
3.238080e-03
3.580710e-03
3.238080e-03
3.580710e-03
2.583180e-03
2.858850e-03
2.583180e-03
2.858850e-03
1.933260e-03
2.140720e-03
1.933260e-03
2.140720e-03
1.286910e-03
1.425500e-03
1.286910e-03
1.425500e-03
6.428880e-04
7.122500e-04
6.428880e-04
7.122500e-04
0.000000e+00
0.000000e+00
</DataArray>
<DataArray type="Float32" Name="V4" format="ascii">
9.000000e-01
1.000000e+00
9.000000e-01
1.000000e+00
9.000000e-01
1.000000e+00
9.000000e-01
1.000000e+00
9.000000e-01
1.000000e+00
9.000000e-01
1.000000e+00
9.000000e-01
1.000000e+00
9.000000e-01
1.000000e+00
9.000000e-01
1.000000e+00
9.000000e-01
1.000000e+00
9.000000e-01
1.000000e+00
9.000000e-01
1.000000e+00
9.000000e-01
1.000000e+00
9.000000e-01
1.000000e+00
9.000000e-01
1.000000e+00
9.000000e-01
1.000000e+00
9.000000e-01
1.000000e+00
9.000000e-01
1.000000e+00
9.000000e-01
1.000000e+00
9.000000e-01
1.000000e+00
9.000000e-01
1.000000e+00
9.000000e-01
1.000000e+00
9.000000e-01
1.000000e+00
9.000000e-01
1.000000e+00
9.000000e-01
1.000000e+00
9.000000e-01
1.000000e+00
9.000000e-01
1.000000e+00
9.000000e-01
1.000000e+00
9.000000e-01
1.000000e+00
9.000000e-01
1.000000e+00
9.000000e-01
1.000000e+00
9.000000e-01
1.000000e+00
9.000000e-01
1.000000e+00
9.000000e-01
1.000000e+00
9.000000e-01
1.000000e+00
9.000000e-01
1.000000e+00
9.000000e-01
1.000000e+00
9.000000e-01
1.000000e+00
9.000000e-01
1.000000e+00
9.000000e-01
1.000000e+00
9.000000e-01
1.000000e+00
9.000000e-01
1.000000e+00
9.000000e-01
1.000000e+00
9.000000e-01
1.000000e+00
9.000000e-01
1.000000e+00
9.000000e-01
1.000000e+00
9.000000e-01
1.000000e+00
9.000000e-01
1.000000e+00
9.000000e-01
1.000000e+00
9.000000e-01
1.000000e+00
9.000000e-01
1.000000e+00
9.000000e-01
1.000000e+00
9.000000e-01
1.000000e+00
9.000000e-01
1.000000e+00
9.000000e-01
1.000000e+00
9.000000e-01
1.000000e+00
9.000000e-01
1.000000e+00
9.000000e-01
1.000000e+00
9.000000e-01
1.000000e+00
9.000000e-01
1.000000e+00
9.000000e-01
1.000000e+00
9.000000e-01
1.000000e+00
9.000000e-01
1.000000e+00
9.000000e-01
1.000000e+00
9.000000e-01
1.000000e+00
9.000000e-01
1.000000e+00
9.000000e-01
1.000000e+00
9.000000e-01
1.000000e+00
9.000000e-01
1.000000e+00
9.000000e-01
1.000000e+00
9.000000e-01
1.000000e+00
9.000000e-01
1.000000e+00
9.000000e-01
1.000000e+00
9.000000e-01
1.000000e+00
9.000000e-01
1.000000e+00
9.000000e-01
1.000000e+00
9.000000e-01
1.000000e+00
9.000000e-01
1.000000e+00
9.000000e-01
1.000000e+00
9.000000e-01
1.000000e+00
9.000000e-01
1.000000e+00
9.000000e-01
1.000000e+00
9.000000e-01
1.000000e+00
9.000000e-01
1.000000e+00
9.000000e-01
1.000000e+00
9.000000e-01
1.000000e+00
9.000000e-01
1.000000e+00
9.000000e-01
1.000000e+00
9.000000e-01
1.000000e+00
9.000000e-01
1.000000e+00
9.000000e-01
1.000000e+00
9.000000e-01
1.000000e+00
9.000000e-01
1.000000e+00
9.000000e-01
1.000000e+00
9.000000e-01
1.000000e+00
9.000000e-01
1.000000e+00
</DataArray>
<DataArray type="Float32" Name="V5" format="ascii">
0.000000e+00
0.000000e+00
3.272490e-02
3.272490e-02
3.272490e-02
3.272490e-02
6.544980e-02
6.544980e-02
6.544980e-02
6.544980e-02
9.817480e-02
9.817480e-02
9.817480e-02
9.817480e-02
1.309000e-01
1.309000e-01
1.309000e-01
1.309000e-01
1.636250e-01
1.636250e-01
1.636250e-01
1.636250e-01
1.963500e-01
1.963500e-01
1.963500e-01
1.963500e-01
2.290740e-01
2.290740e-01
2.290740e-01
2.290740e-01
2.617990e-01
2.617990e-01
2.617990e-01
2.617990e-01
2.945240e-01
2.945240e-01
2.945240e-01
2.945240e-01
3.272490e-01
3.272490e-01
3.272490e-01
3.272490e-01
3.599740e-01
3.599740e-01
3.599740e-01
3.599740e-01
3.926990e-01
3.926990e-01
3.926990e-01
3.926990e-01
4.254240e-01
4.254240e-01
4.254240e-01
4.254240e-01
4.581490e-01
4.581490e-01
4.581490e-01
4.581490e-01
4.908740e-01
4.908740e-01
4.908740e-01
4.908740e-01
5.235990e-01
5.235990e-01
5.235990e-01
5.235990e-01
5.563240e-01
5.563240e-01
5.563240e-01
5.563240e-01
5.890490e-01
5.890490e-01
5.890490e-01
5.890490e-01
6.217740e-01
6.217740e-01
6.217740e-01
6.217740e-01
6.544980e-01
6.544980e-01
6.544980e-01
6.544980e-01
6.872230e-01
6.872230e-01
6.872230e-01
6.872230e-01
7.199480e-01
7.199480e-01
7.199480e-01
7.199480e-01
7.526730e-01
7.526730e-01
7.526730e-01
7.526730e-01
7.853980e-01
7.853980e-01
7.853980e-01
7.853980e-01
8.181230e-01
8.181230e-01
8.181230e-01
8.181230e-01
8.508480e-01
8.508480e-01
8.508480e-01
8.508480e-01
8.835730e-01
8.835730e-01
8.835730e-01
8.835730e-01
9.162980e-01
9.162980e-01
9.162980e-01
9.162980e-01
9.490230e-01
9.490230e-01
9.490230e-01
9.490230e-01
9.817480e-01
9.817480e-01
9.817480e-01
9.817480e-01
1.014470e+00
1.014470e+00
1.014470e+00
1.014470e+00
1.047200e+00
1.047200e+00
1.047200e+00
1.047200e+00
1.079920e+00
1.079920e+00
1.079920e+00
1.079920e+00
1.112650e+00
1.112650e+00
1.112650e+00
1.112650e+00
1.145370e+00
1.145370e+00
1.145370e+00
1.145370e+00
1.178100e+00
1.178100e+00
1.178100e+00
1.178100e+00
1.210820e+00
1.210820e+00
1.210820e+00
1.210820e+00
1.243550e+00
1.243550e+00
1.243550e+00
1.243550e+00
1.276270e+00
1.276270e+00
1.276270e+00
1.276270e+00
1.309000e+00
1.309000e+00
1.309000e+00
1.309000e+00
1.341720e+00
1.341720e+00
1.341720e+00
1.341720e+00
1.374450e+00
1.374450e+00
1.374450e+00
1.374450e+00
1.407170e+00
1.407170e+00
1.407170e+00
1.407170e+00
1.439900e+00
1.439900e+00
1.439900e+00
1.439900e+00
1.472620e+00
1.472620e+00
1.472620e+00
1.472620e+00
1.505350e+00
1.505350e+00
1.505350e+00
1.505350e+00
1.538070e+00
1.538070e+00
1.538070e+00
1.538070e+00
1.570800e+00
1.570800e+00
</DataArray>
</PointData>
</Piece></UnstructuredGrid>
</VTKFile>
