<?xml version="1.0"?>
<VTKFile type="UnstructuredGrid" version="0.1" byte_order="LittleEndian" compressor="vtkZLibDataCompressor">
<UnstructuredGrid>
<Piece NumberOfPoints="192" NumberOfCells="48">
<Points>
<DataArray type="Float32" NumberOfComponents="3" format="ascii">
0.000000e+00 3.513650e-01 0.000000e+00
0.000000e+00 3.825000e-01 0.000000e+00
5.574380e-02 3.513700e-01 0.000000e+00
5.573890e-02 3.825000e-01 0.000000e+00
5.574380e-02 3.513700e-01 0.000000e+00
5.573890e-02 3.825000e-01 0.000000e+00
1.114850e-01 3.513830e-01 0.000000e+00
1.114750e-01 3.825000e-01 0.000000e+00
1.114850e-01 3.513830e-01 0.000000e+00
1.114750e-01 3.825000e-01 0.000000e+00
1.672200e-01 3.514050e-01 0.000000e+00
1.672050e-01 3.825000e-01 0.000000e+00
1.672200e-01 3.514050e-01 0.000000e+00
1.672050e-01 3.825000e-01 0.000000e+00
2.229460e-01 3.514360e-01 0.000000e+00
2.229260e-01 3.825000e-01 0.000000e+00
2.229460e-01 3.514360e-01 0.000000e+00
2.229260e-01 3.825000e-01 0.000000e+00
2.786600e-01 3.514760e-01 0.000000e+00
2.786350e-01 3.825000e-01 0.000000e+00
2.786600e-01 3.514760e-01 0.000000e+00
2.786350e-01 3.825000e-01 0.000000e+00
3.343590e-01 3.515240e-01 0.000000e+00
3.343290e-01 3.825000e-01 0.000000e+00
3.343590e-01 3.515240e-01 0.000000e+00
3.343290e-01 3.825000e-01 0.000000e+00
3.900370e-01 3.515810e-01 0.000000e+00
3.900020e-01 3.825000e-01 0.000000e+00
3.900370e-01 3.515810e-01 0.000000e+00
3.900020e-01 3.825000e-01 0.000000e+00
4.456950e-01 3.516470e-01 0.000000e+00
4.456550e-01 3.825000e-01 0.000000e+00
4.456950e-01 3.516470e-01 0.000000e+00
4.456550e-01 3.825000e-01 0.000000e+00
5.013270e-01 3.517210e-01 0.000000e+00
5.012820e-01 3.825000e-01 0.000000e+00
5.013270e-01 3.517210e-01 0.000000e+00
5.012820e-01 3.825000e-01 0.000000e+00
5.569310e-01 3.518030e-01 0.000000e+00
5.568810e-01 3.825000e-01 0.000000e+00
5.569310e-01 3.518030e-01 0.000000e+00
5.568810e-01 3.825000e-01 0.000000e+00
6.125010e-01 3.518940e-01 0.000000e+00
6.124470e-01 3.825000e-01 0.000000e+00
6.125010e-01 3.518940e-01 0.000000e+00
6.124470e-01 3.825000e-01 0.000000e+00
6.680360e-01 3.519930e-01 0.000000e+00
6.679770e-01 3.825000e-01 0.000000e+00
6.680360e-01 3.519930e-01 0.000000e+00
6.679770e-01 3.825000e-01 0.000000e+00
7.235290e-01 3.520990e-01 0.000000e+00
7.234660e-01 3.825000e-01 0.000000e+00
7.235290e-01 3.520990e-01 0.000000e+00
7.234660e-01 3.825000e-01 0.000000e+00
7.789790e-01 3.522140e-01 0.000000e+00
7.789100e-01 3.825000e-01 0.000000e+00
7.789790e-01 3.522140e-01 0.000000e+00
7.789100e-01 3.825000e-01 0.000000e+00
8.343790e-01 3.523360e-01 0.000000e+00
8.343060e-01 3.825000e-01 0.000000e+00
8.343790e-01 3.523360e-01 0.000000e+00
8.343060e-01 3.825000e-01 0.000000e+00
8.897250e-01 3.524660e-01 0.000000e+00
8.896480e-01 3.825000e-01 0.000000e+00
8.897250e-01 3.524660e-01 0.000000e+00
8.896480e-01 3.825000e-01 0.000000e+00
9.450130e-01 3.526020e-01 0.000000e+00
9.449310e-01 3.825000e-01 0.000000e+00
9.450130e-01 3.526020e-01 0.000000e+00
9.449310e-01 3.825000e-01 0.000000e+00
1.000240e+00 3.527460e-01 0.000000e+00
1.000150e+00 3.825000e-01 0.000000e+00
1.000240e+00 3.527460e-01 0.000000e+00
1.000150e+00 3.825000e-01 0.000000e+00
1.055390e+00 3.528970e-01 0.000000e+00
1.055300e+00 3.825000e-01 0.000000e+00
1.055390e+00 3.528970e-01 0.000000e+00
1.055300e+00 3.825000e-01 0.000000e+00
1.110470e+00 3.530550e-01 0.000000e+00
1.110380e+00 3.825000e-01 0.000000e+00
1.110470e+00 3.530550e-01 0.000000e+00
1.110380e+00 3.825000e-01 0.000000e+00
1.165470e+00 3.532190e-01 0.000000e+00
1.165370e+00 3.825000e-01 0.000000e+00
1.165470e+00 3.532190e-01 0.000000e+00
1.165370e+00 3.825000e-01 0.000000e+00
1.220390e+00 3.533890e-01 0.000000e+00
1.220280e+00 3.825000e-01 0.000000e+00
1.220390e+00 3.533890e-01 0.000000e+00
1.220280e+00 3.825000e-01 0.000000e+00
1.275210e+00 3.535650e-01 0.000000e+00
1.275100e+00 3.825000e-01 0.000000e+00
1.275210e+00 3.535650e-01 0.000000e+00
1.275100e+00 3.825000e-01 0.000000e+00
1.329930e+00 3.537470e-01 0.000000e+00
1.329820e+00 3.825000e-01 0.000000e+00
1.329930e+00 3.537470e-01 0.000000e+00
1.329820e+00 3.825000e-01 0.000000e+00
1.384540e+00 3.539340e-01 0.000000e+00
1.384430e+00 3.825000e-01 0.000000e+00
1.384540e+00 3.539340e-01 0.000000e+00
1.384430e+00 3.825000e-01 0.000000e+00
1.439040e+00 3.541270e-01 0.000000e+00
1.438920e+00 3.825000e-01 0.000000e+00
1.439040e+00 3.541270e-01 0.000000e+00
1.438920e+00 3.825000e-01 0.000000e+00
1.493410e+00 3.543250e-01 0.000000e+00
1.493290e+00 3.825000e-01 0.000000e+00
1.493410e+00 3.543250e-01 0.000000e+00
1.493290e+00 3.825000e-01 0.000000e+00
1.547660e+00 3.545270e-01 0.000000e+00
1.547540e+00 3.825000e-01 0.000000e+00
1.547660e+00 3.545270e-01 0.000000e+00
1.547540e+00 3.825000e-01 0.000000e+00
1.601770e+00 3.547340e-01 0.000000e+00
1.601640e+00 3.825000e-01 0.000000e+00
1.601770e+00 3.547340e-01 0.000000e+00
1.601640e+00 3.825000e-01 0.000000e+00
1.655720e+00 3.549460e-01 0.000000e+00
1.655600e+00 3.825000e-01 0.000000e+00
1.655720e+00 3.549460e-01 0.000000e+00
1.655600e+00 3.825000e-01 0.000000e+00
1.709510e+00 3.551610e-01 0.000000e+00
1.709390e+00 3.825000e-01 0.000000e+00
1.709510e+00 3.551610e-01 0.000000e+00
1.709390e+00 3.825000e-01 0.000000e+00
1.763140e+00 3.553800e-01 0.000000e+00
1.763040e+00 3.825000e-01 0.000000e+00
1.763140e+00 3.553800e-01 0.000000e+00
1.763040e+00 3.825000e-01 0.000000e+00
1.816550e+00 3.556030e-01 0.000000e+00
1.816530e+00 3.825000e-01 0.000000e+00
1.816550e+00 3.556030e-01 0.000000e+00
1.816530e+00 3.825000e-01 0.000000e+00
1.869730e+00 3.558310e-01 0.000000e+00
1.869910e+00 3.825000e-01 0.000000e+00
1.869730e+00 3.558310e-01 0.000000e+00
1.869910e+00 3.825000e-01 0.000000e+00
1.922520e+00 3.560640e-01 0.000000e+00
1.923280e+00 3.825000e-01 0.000000e+00
1.922520e+00 3.560640e-01 0.000000e+00
1.923280e+00 3.825000e-01 0.000000e+00
1.974630e+00 3.562620e-01 0.000000e+00
1.976890e+00 3.825000e-01 0.000000e+00
1.974630e+00 3.562620e-01 0.000000e+00
1.976890e+00 3.825000e-01 0.000000e+00
2.025430e+00 3.554870e-01 0.000000e+00
2.030010e+00 3.821830e-01 0.000000e+00
2.025430e+00 3.554870e-01 0.000000e+00
2.030010e+00 3.821830e-01 0.000000e+00
2.074480e+00 3.493990e-01 0.000000e+00
2.081030e+00 3.753690e-01 0.000000e+00
2.074480e+00 3.493990e-01 0.000000e+00
2.081030e+00 3.753690e-01 0.000000e+00
2.121190e+00 3.360590e-01 0.000000e+00
2.130760e+00 3.608000e-01 0.000000e+00
2.121190e+00 3.360590e-01 0.000000e+00
2.130760e+00 3.608000e-01 0.000000e+00
2.165080e+00 3.160210e-01 0.000000e+00
2.177810e+00 3.390290e-01 0.000000e+00
2.165080e+00 3.160210e-01 0.000000e+00
2.177810e+00 3.390290e-01 0.000000e+00
2.205430e+00 2.899390e-01 0.000000e+00
2.221120e+00 3.107910e-01 0.000000e+00
2.205430e+00 2.899390e-01 0.000000e+00
2.221120e+00 3.107910e-01 0.000000e+00
2.241640e+00 2.585000e-01 0.000000e+00
2.259920e+00 2.768630e-01 0.000000e+00
2.241640e+00 2.585000e-01 0.000000e+00
2.259920e+00 2.768630e-01 0.000000e+00
2.273120e+00 2.224640e-01 0.000000e+00
2.293590e+00 2.380880e-01 0.000000e+00
2.273120e+00 2.224640e-01 0.000000e+00
2.293590e+00 2.380880e-01 0.000000e+00
2.299450e+00 1.825720e-01 0.000000e+00
2.321710e+00 1.952680e-01 0.000000e+00
2.299450e+00 1.825720e-01 0.000000e+00
2.321710e+00 1.952680e-01 0.000000e+00
2.320260e+00 1.396180e-01 0.000000e+00
2.343900e+00 1.492510e-01 0.000000e+00
2.320260e+00 1.396180e-01 0.000000e+00
2.343900e+00 1.492510e-01 0.000000e+00
2.335310e+00 9.434890e-02 0.000000e+00
2.359930e+00 1.008200e-01 0.000000e+00
2.335310e+00 9.434890e-02 0.000000e+00
2.359930e+00 1.008200e-01 0.000000e+00
2.344410e+00 4.756020e-02 0.000000e+00
2.369610e+00 5.081100e-02 0.000000e+00
2.344410e+00 4.756020e-02 0.000000e+00
2.369610e+00 5.081100e-02 0.000000e+00
2.347460e+00 -8.622690e-06 0.000000e+00
2.372850e+00 -8.715960e-06 0.000000e+00
</DataArray>
</Points>
<Cells>
<DataArray type="Int32" Name="connectivity" format="ascii">
0 1 3 2
4 5 7 6
8 9 11 10
12 13 15 14
16 17 19 18
20 21 23 22
24 25 27 26
28 29 31 30
32 33 35 34
36 37 39 38
40 41 43 42
44 45 47 46
48 49 51 50
52 53 55 54
56 57 59 58
60 61 63 62
64 65 67 66
68 69 71 70
72 73 75 74
76 77 79 78
80 81 83 82
84 85 87 86
88 89 91 90
92 93 95 94
96 97 99 98
100 101 103 102
104 105 107 106
108 109 111 110
112 113 115 114
116 117 119 118
120 121 123 122
124 125 127 126
128 129 131 130
132 133 135 134
136 137 139 138
140 141 143 142
144 145 147 146
148 149 151 150
152 153 155 154
156 157 159 158
160 161 163 162
164 165 167 166
168 169 171 170
172 173 175 174
176 177 179 178
180 181 183 182
184 185 187 186
188 189 191 190
</DataArray>
<DataArray type="Int32" Name="offsets" format="ascii">
4
8
12
16
20
24
28
32
36
40
44
48
52
56
60
64
68
72
76
80
84
88
92
96
100
104
108
112
116
120
124
128
132
136
140
144
148
152
156
160
164
168
172
176
180
184
188
192
</DataArray>
<DataArray type="UInt8" Name="types" format="ascii">
9
9
9
9
9
9
9
9
9
9
9
9
9
9
9
9
9
9
9
9
9
9
9
9
9
9
9
9
9
9
9
9
9
9
9
9
9
9
9
9
9
9
9
9
9
9
9
9
</DataArray>
</Cells>
<PointData>
<DataArray type="Float32" Name="V1" format="ascii">
2.101760e+01
1.321350e+01
2.102390e+01
1.321980e+01
2.102640e+01
1.321830e+01
2.104130e+01
1.323320e+01
2.104610e+01
1.323010e+01
2.107160e+01
1.325570e+01
2.107840e+01
1.325060e+01
2.111450e+01
1.328670e+01
2.112330e+01
1.327970e+01
2.117000e+01
1.332630e+01
2.118090e+01
1.331740e+01
2.123810e+01
1.337470e+01
2.125120e+01
1.336390e+01
2.131900e+01
1.343170e+01
2.133420e+01
1.341910e+01
2.141280e+01
1.349760e+01
2.143020e+01
1.348310e+01
2.151940e+01
1.357230e+01
2.153910e+01
1.355590e+01
2.163920e+01
1.365600e+01
2.166110e+01
1.363770e+01
2.177220e+01
1.374880e+01
2.179630e+01
1.372850e+01
2.191850e+01
1.385070e+01
2.194490e+01
1.382840e+01
2.207840e+01
1.396190e+01
2.210710e+01
1.393760e+01
2.225190e+01
1.408240e+01
2.228300e+01
1.405620e+01
2.243940e+01
1.421250e+01
2.247290e+01
1.418420e+01
2.264090e+01
1.435220e+01
2.267690e+01
1.432190e+01
2.285680e+01
1.450180e+01
2.289530e+01
1.446930e+01
2.308730e+01
1.466140e+01
2.312830e+01
1.462680e+01
2.333270e+01
1.483110e+01
2.337620e+01
1.479430e+01
2.359310e+01
1.501120e+01
2.363930e+01
1.497220e+01
2.386900e+01
1.520190e+01
2.391790e+01
1.516060e+01
2.416070e+01
1.540330e+01
2.421230e+01
1.535970e+01
2.446840e+01
1.561580e+01
2.452280e+01
1.556980e+01
2.479250e+01
1.583950e+01
2.484990e+01
1.579120e+01
2.513350e+01
1.607480e+01
2.519380e+01
1.602400e+01
2.549170e+01
1.632190e+01
2.555490e+01
1.626860e+01
2.586750e+01
1.658110e+01
2.593370e+01
1.652530e+01
2.626130e+01
1.685290e+01
2.633060e+01
1.679450e+01
2.667360e+01
1.713750e+01
2.674550e+01
1.707690e+01
2.710430e+01
1.743580e+01
2.717810e+01
1.737370e+01
2.755330e+01
1.774890e+01
2.762590e+01
1.768790e+01
2.801820e+01
1.808020e+01
2.808110e+01
1.802740e+01
2.849120e+01
1.843750e+01
2.851940e+01
1.841450e+01
2.894960e+01
1.884470e+01
2.887020e+01
1.891330e+01
2.932550e+01
1.936860e+01
2.893930e+01
1.969990e+01
2.942620e+01
2.018680e+01
2.838420e+01
2.112140e+01
2.875070e+01
2.148790e+01
2.744490e+01
2.249590e+01
2.793050e+01
2.298160e+01
2.737580e+01
2.345760e+01
2.786000e+01
2.394170e+01
2.771290e+01
2.406510e+01
2.817280e+01
2.452500e+01
2.817480e+01
2.452310e+01
2.860240e+01
2.495070e+01
2.865380e+01
2.490720e+01
2.904120e+01
2.529460e+01
2.910460e+01
2.524140e+01
2.944450e+01
2.558120e+01
2.950500e+01
2.553040e+01
2.979120e+01
2.581650e+01
2.984300e+01
2.577310e+01
3.007050e+01
2.600060e+01
3.011070e+01
2.596680e+01
3.027580e+01
2.613180e+01
3.030320e+01
2.610890e+01
3.040320e+01
2.620900e+01
3.041710e+01
2.619740e+01
3.045060e+01
2.623080e+01
</DataArray>
<DataArray type="Float32" Name="V2" format="ascii">
3.513650e-01
3.825000e-01
3.530050e-01
3.841190e-01
3.530050e-01
3.841190e-01
3.579220e-01
3.889720e-01
3.579220e-01
3.889720e-01
3.661030e-01
3.970470e-01
3.661030e-01
3.970470e-01
3.775300e-01
4.083250e-01
3.775300e-01
4.083250e-01
3.921740e-01
4.227800e-01
3.921740e-01
4.227800e-01
4.100000e-01
4.403750e-01
4.100000e-01
4.403750e-01
4.309650e-01
4.610680e-01
4.309650e-01
4.610680e-01
4.550190e-01
4.848100e-01
4.550190e-01
4.848100e-01
4.821030e-01
5.115440e-01
4.821030e-01
5.115440e-01
5.121520e-01
5.412040e-01
5.121520e-01
5.412040e-01
5.450930e-01
5.737180e-01
5.450930e-01
5.737180e-01
5.808450e-01
6.090070e-01
5.808450e-01
6.090070e-01
6.193200e-01
6.469850e-01
6.193200e-01
6.469850e-01
6.604250e-01
6.875570e-01
6.604250e-01
6.875570e-01
7.040560e-01
7.306240e-01
7.040560e-01
7.306240e-01
7.501070e-01
7.760790e-01
7.501070e-01
7.760790e-01
7.984620e-01
8.238080e-01
7.984620e-01
8.238080e-01
8.490000e-01
8.736910e-01
8.490000e-01
8.736910e-01
9.015940e-01
9.256040e-01
9.015940e-01
9.256040e-01
9.561090e-01
9.794120e-01
9.561090e-01
9.794120e-01
1.012410e+00
1.034980e+00
1.012410e+00
1.034980e+00
1.070350e+00
1.092170e+00
1.070350e+00
1.092170e+00
1.129770e+00
1.150820e+00
1.129770e+00
1.150820e+00
1.190540e+00
1.210790e+00
1.190540e+00
1.210790e+00
1.252470e+00
1.271920e+00
1.252470e+00
1.271920e+00
1.315420e+00
1.334040e+00
1.315420e+00
1.334040e+00
1.379210e+00
1.396990e+00
1.379210e+00
1.396990e+00
1.443660e+00
1.460590e+00
1.443660e+00
1.460590e+00
1.508610e+00
1.524690e+00
1.508610e+00
1.524690e+00
1.573880e+00
1.589080e+00
1.573880e+00
1.589080e+00
1.639270e+00
1.653600e+00
1.639270e+00
1.653600e+00
1.704620e+00
1.718090e+00
1.704620e+00
1.718090e+00
1.769680e+00
1.782340e+00
1.769680e+00
1.782340e+00
1.834290e+00
1.846250e+00
1.834290e+00
1.846250e+00
1.898100e+00
1.909700e+00
1.898100e+00
1.909700e+00
1.960650e+00
1.972790e+00
1.960650e+00
1.972790e+00
2.020830e+00
2.034520e+00
2.020830e+00
2.034520e+00
2.076700e+00
2.091250e+00
2.076700e+00
2.091250e+00
2.127410e+00
2.143740e+00
2.127410e+00
2.143740e+00
2.173100e+00
2.191360e+00
2.173100e+00
2.191360e+00
2.213660e+00
2.233670e+00
2.213660e+00
2.233670e+00
2.249000e+00
2.270510e+00
2.249000e+00
2.270510e+00
2.279000e+00
2.301740e+00
2.279000e+00
2.301740e+00
2.303610e+00
2.327330e+00
2.303610e+00
2.327330e+00
2.322780e+00
2.347240e+00
2.322780e+00
2.347240e+00
2.336480e+00
2.361470e+00
2.336480e+00
2.361470e+00
2.344710e+00
2.370000e+00
2.344710e+00
2.370000e+00
2.347460e+00
2.372850e+00
</DataArray>
<DataArray type="Float32" Name="V3" format="ascii">
0.000000e+00
0.000000e+00
4.421750e-02
4.319400e-02
4.421750e-02
4.319400e-02
8.826470e-02
8.621950e-02
8.826470e-02
8.621950e-02
1.319710e-01
1.289080e-01
1.319710e-01
1.289080e-01
1.751670e-01
1.710930e-01
1.751670e-01
1.710930e-01
2.176840e-01
2.126060e-01
2.176840e-01
2.126060e-01
2.593550e-01
2.532820e-01
2.593550e-01
2.532820e-01
3.000120e-01
2.929570e-01
3.000120e-01
2.929570e-01
3.394950e-01
3.314710e-01
3.394950e-01
3.314710e-01
3.776410e-01
3.686640e-01
3.776410e-01
3.686640e-01
4.142910e-01
4.043770e-01
4.142910e-01
4.043770e-01
4.492890e-01
4.384570e-01
4.492890e-01
4.384570e-01
4.824830e-01
4.707540e-01
4.824830e-01
4.707540e-01
5.137230e-01
5.011180e-01
5.137230e-01
5.011180e-01
5.428640e-01
5.294080e-01
5.428640e-01
5.294080e-01
5.697660e-01
5.554830e-01
5.697660e-01
5.554830e-01
5.942910e-01
5.792070e-01
5.942910e-01
5.792070e-01
6.163090e-01
6.004510e-01
6.163090e-01
6.004510e-01
6.356910e-01
6.190890e-01
6.356910e-01
6.190890e-01
6.523170e-01
6.350010e-01
6.523170e-01
6.350010e-01
6.660700e-01
6.480700e-01
6.660700e-01
6.480700e-01
6.768420e-01
6.581910e-01
6.768420e-01
6.581910e-01
6.845290e-01
6.652580e-01
6.845290e-01
6.652580e-01
6.890330e-01
6.691760e-01
6.890330e-01
6.691760e-01
6.902630e-01
6.698540e-01
6.902630e-01
6.698540e-01
6.881370e-01
6.672100e-01
6.881370e-01
6.672100e-01
6.825770e-01
6.611680e-01
6.825770e-01
6.611680e-01
6.735150e-01
6.516590e-01
6.735150e-01
6.516590e-01
6.608900e-01
6.386230e-01
6.608900e-01
6.386230e-01
6.446480e-01
6.220050e-01
6.446480e-01
6.220050e-01
6.247430e-01
6.017620e-01
6.247430e-01
6.017620e-01
6.011390e-01
5.778590e-01
6.011390e-01
5.778590e-01
5.737970e-01
5.502620e-01
5.737970e-01
5.502620e-01
5.427070e-01
5.189740e-01
5.427070e-01
5.189740e-01
5.078210e-01
4.839810e-01
5.078210e-01
4.839810e-01
4.691150e-01
4.453500e-01
4.691150e-01
4.453500e-01
4.265080e-01
4.031350e-01
4.265080e-01
4.031350e-01
3.807600e-01
3.573890e-01
3.807600e-01
3.573890e-01
3.359580e-01
3.134710e-01
3.359580e-01
3.134710e-01
2.941650e-01
2.732670e-01
2.941650e-01
2.732670e-01
2.551040e-01
2.361760e-01
2.551040e-01
2.361760e-01
2.184410e-01
2.016960e-01
2.184410e-01
2.016960e-01
1.837820e-01
1.693380e-01
1.837820e-01
1.693380e-01
1.507920e-01
1.387120e-01
1.507920e-01
1.387120e-01
1.191210e-01
1.094380e-01
1.191210e-01
1.094380e-01
8.848310e-02
8.121410e-02
8.848310e-02
8.121410e-02
5.858170e-02
5.373410e-02
5.858170e-02
5.373410e-02
2.917550e-02
2.675100e-02
2.917550e-02
2.675100e-02
0.000000e+00
0.000000e+00
</DataArray>
<DataArray type="Float32" Name="V4" format="ascii">
9.000000e-01
1.000000e+00
9.000000e-01
1.000000e+00
9.000000e-01
1.000000e+00
9.000000e-01
1.000000e+00
9.000000e-01
1.000000e+00
9.000000e-01
1.000000e+00
9.000000e-01
1.000000e+00
9.000000e-01
1.000000e+00
9.000000e-01
1.000000e+00
9.000000e-01
1.000000e+00
9.000000e-01
1.000000e+00
9.000000e-01
1.000000e+00
9.000000e-01
1.000000e+00
9.000000e-01
1.000000e+00
9.000000e-01
1.000000e+00
9.000000e-01
1.000000e+00
9.000000e-01
1.000000e+00
9.000000e-01
1.000000e+00
9.000000e-01
1.000000e+00
9.000000e-01
1.000000e+00
9.000000e-01
1.000000e+00
9.000000e-01
1.000000e+00
9.000000e-01
1.000000e+00
9.000000e-01
1.000000e+00
9.000000e-01
1.000000e+00
9.000000e-01
1.000000e+00
9.000000e-01
1.000000e+00
9.000000e-01
1.000000e+00
9.000000e-01
1.000000e+00
9.000000e-01
1.000000e+00
9.000000e-01
1.000000e+00
9.000000e-01
1.000000e+00
9.000000e-01
1.000000e+00
9.000000e-01
1.000000e+00
9.000000e-01
1.000000e+00
9.000000e-01
1.000000e+00
9.000000e-01
1.000000e+00
9.000000e-01
1.000000e+00
9.000000e-01
1.000000e+00
9.000000e-01
1.000000e+00
9.000000e-01
1.000000e+00
9.000000e-01
1.000000e+00
9.000000e-01
1.000000e+00
9.000000e-01
1.000000e+00
9.000000e-01
1.000000e+00
9.000000e-01
1.000000e+00
9.000000e-01
1.000000e+00
9.000000e-01
1.000000e+00
9.000000e-01
1.000000e+00
9.000000e-01
1.000000e+00
9.000000e-01
1.000000e+00
9.000000e-01
1.000000e+00
9.000000e-01
1.000000e+00
9.000000e-01
1.000000e+00
9.000000e-01
1.000000e+00
9.000000e-01
1.000000e+00
9.000000e-01
1.000000e+00
9.000000e-01
1.000000e+00
9.000000e-01
1.000000e+00
9.000000e-01
1.000000e+00
9.000000e-01
1.000000e+00
9.000000e-01
1.000000e+00
9.000000e-01
1.000000e+00
9.000000e-01
1.000000e+00
9.000000e-01
1.000000e+00
9.000000e-01
1.000000e+00
9.000000e-01
1.000000e+00
9.000000e-01
1.000000e+00
9.000000e-01
1.000000e+00
9.000000e-01
1.000000e+00
9.000000e-01
1.000000e+00
9.000000e-01
1.000000e+00
9.000000e-01
1.000000e+00
9.000000e-01
1.000000e+00
9.000000e-01
1.000000e+00
9.000000e-01
1.000000e+00
9.000000e-01
1.000000e+00
9.000000e-01
1.000000e+00
9.000000e-01
1.000000e+00
9.000000e-01
1.000000e+00
9.000000e-01
1.000000e+00
9.000000e-01
1.000000e+00
9.000000e-01
1.000000e+00
9.000000e-01
1.000000e+00
9.000000e-01
1.000000e+00
9.000000e-01
1.000000e+00
9.000000e-01
1.000000e+00
9.000000e-01
1.000000e+00
9.000000e-01
1.000000e+00
9.000000e-01
1.000000e+00
9.000000e-01
1.000000e+00
9.000000e-01
1.000000e+00
9.000000e-01
1.000000e+00
9.000000e-01
1.000000e+00
9.000000e-01
1.000000e+00
9.000000e-01
1.000000e+00
</DataArray>
<DataArray type="Float32" Name="V5" format="ascii">
0.000000e+00
0.000000e+00
3.272490e-02
3.272490e-02
3.272490e-02
3.272490e-02
6.544980e-02
6.544980e-02
6.544980e-02
6.544980e-02
9.817480e-02
9.817480e-02
9.817480e-02
9.817480e-02
1.309000e-01
1.309000e-01
1.309000e-01
1.309000e-01
1.636250e-01
1.636250e-01
1.636250e-01
1.636250e-01
1.963500e-01
1.963500e-01
1.963500e-01
1.963500e-01
2.290740e-01
2.290740e-01
2.290740e-01
2.290740e-01
2.617990e-01
2.617990e-01
2.617990e-01
2.617990e-01
2.945240e-01
2.945240e-01
2.945240e-01
2.945240e-01
3.272490e-01
3.272490e-01
3.272490e-01
3.272490e-01
3.599740e-01
3.599740e-01
3.599740e-01
3.599740e-01
3.926990e-01
3.926990e-01
3.926990e-01
3.926990e-01
4.254240e-01
4.254240e-01
4.254240e-01
4.254240e-01
4.581490e-01
4.581490e-01
4.581490e-01
4.581490e-01
4.908740e-01
4.908740e-01
4.908740e-01
4.908740e-01
5.235990e-01
5.235990e-01
5.235990e-01
5.235990e-01
5.563240e-01
5.563240e-01
5.563240e-01
5.563240e-01
5.890490e-01
5.890490e-01
5.890490e-01
5.890490e-01
6.217740e-01
6.217740e-01
6.217740e-01
6.217740e-01
6.544980e-01
6.544980e-01
6.544980e-01
6.544980e-01
6.872230e-01
6.872230e-01
6.872230e-01
6.872230e-01
7.199480e-01
7.199480e-01
7.199480e-01
7.199480e-01
7.526730e-01
7.526730e-01
7.526730e-01
7.526730e-01
7.853980e-01
7.853980e-01
7.853980e-01
7.853980e-01
8.181230e-01
8.181230e-01
8.181230e-01
8.181230e-01
8.508480e-01
8.508480e-01
8.508480e-01
8.508480e-01
8.835730e-01
8.835730e-01
8.835730e-01
8.835730e-01
9.162980e-01
9.162980e-01
9.162980e-01
9.162980e-01
9.490230e-01
9.490230e-01
9.490230e-01
9.490230e-01
9.817480e-01
9.817480e-01
9.817480e-01
9.817480e-01
1.014470e+00
1.014470e+00
1.014470e+00
1.014470e+00
1.047200e+00
1.047200e+00
1.047200e+00
1.047200e+00
1.079920e+00
1.079920e+00
1.079920e+00
1.079920e+00
1.112650e+00
1.112650e+00
1.112650e+00
1.112650e+00
1.145370e+00
1.145370e+00
1.145370e+00
1.145370e+00
1.178100e+00
1.178100e+00
1.178100e+00
1.178100e+00
1.210820e+00
1.210820e+00
1.210820e+00
1.210820e+00
1.243550e+00
1.243550e+00
1.243550e+00
1.243550e+00
1.276270e+00
1.276270e+00
1.276270e+00
1.276270e+00
1.309000e+00
1.309000e+00
1.309000e+00
1.309000e+00
1.341720e+00
1.341720e+00
1.341720e+00
1.341720e+00
1.374450e+00
1.374450e+00
1.374450e+00
1.374450e+00
1.407170e+00
1.407170e+00
1.407170e+00
1.407170e+00
1.439900e+00
1.439900e+00
1.439900e+00
1.439900e+00
1.472620e+00
1.472620e+00
1.472620e+00
1.472620e+00
1.505350e+00
1.505350e+00
1.505350e+00
1.505350e+00
1.538070e+00
1.538070e+00
1.538070e+00
1.538070e+00
1.570800e+00
1.570800e+00
</DataArray>
</PointData>
</Piece></UnstructuredGrid>
</VTKFile>
