<?xml version="1.0"?>
<VTKFile type="UnstructuredGrid" version="0.1" byte_order="LittleEndian" compressor="vtkZLibDataCompressor">
<UnstructuredGrid>
<Piece NumberOfPoints="192" NumberOfCells="48">
<Points>
<DataArray type="Float32" NumberOfComponents="3" format="ascii">
0.000000e+00 8.909750e-01 0.000000e+00
0.000000e+00 9.900000e-01 0.000000e+00
2.972210e-02 8.906370e-01 0.000000e+00
3.249410e-02 9.900000e-01 0.000000e+00
2.972210e-02 8.906370e-01 0.000000e+00
3.249410e-02 9.900000e-01 0.000000e+00
5.945290e-02 8.896600e-01 0.000000e+00
6.491120e-02 9.896760e-01 0.000000e+00
5.945290e-02 8.896600e-01 0.000000e+00
6.491120e-02 9.896760e-01 0.000000e+00
8.902860e-02 8.878850e-01 0.000000e+00
9.730020e-02 9.878380e-01 0.000000e+00
8.902860e-02 8.878850e-01 0.000000e+00
9.730020e-02 9.878380e-01 0.000000e+00
1.183920e-01 8.852290e-01 0.000000e+00
1.297010e-01 9.848550e-01 0.000000e+00
1.183920e-01 8.852290e-01 0.000000e+00
1.297010e-01 9.848550e-01 0.000000e+00
1.475820e-01 8.816130e-01 0.000000e+00
1.620510e-01 9.807920e-01 0.000000e+00
1.475820e-01 8.816130e-01 0.000000e+00
1.620510e-01 9.807920e-01 0.000000e+00
1.765940e-01 8.770230e-01 0.000000e+00
1.942930e-01 9.756410e-01 0.000000e+00
1.765940e-01 8.770230e-01 0.000000e+00
1.942930e-01 9.756410e-01 0.000000e+00
2.054080e-01 8.714550e-01 0.000000e+00
2.263730e-01 9.693970e-01 0.000000e+00
2.054080e-01 8.714550e-01 0.000000e+00
2.263730e-01 9.693970e-01 0.000000e+00
2.339990e-01 8.649080e-01 0.000000e+00
2.582420e-01 9.620580e-01 0.000000e+00
2.339990e-01 8.649080e-01 0.000000e+00
2.582420e-01 9.620580e-01 0.000000e+00
2.623380e-01 8.573840e-01 0.000000e+00
2.898550e-01 9.536290e-01 0.000000e+00
2.623380e-01 8.573840e-01 0.000000e+00
2.898550e-01 9.536290e-01 0.000000e+00
2.903960e-01 8.488900e-01 0.000000e+00
3.211670e-01 9.441170e-01 0.000000e+00
2.903960e-01 8.488900e-01 0.000000e+00
3.211670e-01 9.441170e-01 0.000000e+00
3.181440e-01 8.394340e-01 0.000000e+00
3.521400e-01 9.335330e-01 0.000000e+00
3.181440e-01 8.394340e-01 0.000000e+00
3.521400e-01 9.335330e-01 0.000000e+00
3.455520e-01 8.290270e-01 0.000000e+00
3.827330e-01 9.218910e-01 0.000000e+00
3.455520e-01 8.290270e-01 0.000000e+00
3.827330e-01 9.218910e-01 0.000000e+00
3.725900e-01 8.176830e-01 0.000000e+00
4.129100e-01 9.092070e-01 0.000000e+00
3.725900e-01 8.176830e-01 0.000000e+00
4.129100e-01 9.092070e-01 0.000000e+00
3.992290e-01 8.054160e-01 0.000000e+00
4.426350e-01 8.955000e-01 0.000000e+00
3.992290e-01 8.054160e-01 0.000000e+00
4.426350e-01 8.955000e-01 0.000000e+00
4.254390e-01 7.922430e-01 0.000000e+00
4.718740e-01 8.807880e-01 0.000000e+00
4.254390e-01 7.922430e-01 0.000000e+00
4.718740e-01 8.807880e-01 0.000000e+00
4.511920e-01 7.781810e-01 0.000000e+00
5.005950e-01 8.650920e-01 0.000000e+00
4.511920e-01 7.781810e-01 0.000000e+00
5.005950e-01 8.650920e-01 0.000000e+00
4.764600e-01 7.632500e-01 0.000000e+00
5.287650e-01 8.484340e-01 0.000000e+00
4.764600e-01 7.632500e-01 0.000000e+00
5.287650e-01 8.484340e-01 0.000000e+00
5.012160e-01 7.474690e-01 0.000000e+00
5.563550e-01 8.308360e-01 0.000000e+00
5.012160e-01 7.474690e-01 0.000000e+00
5.563550e-01 8.308360e-01 0.000000e+00
5.254330e-01 7.308580e-01 0.000000e+00
5.833360e-01 8.123220e-01 0.000000e+00
5.254330e-01 7.308580e-01 0.000000e+00
5.833360e-01 8.123220e-01 0.000000e+00
5.490860e-01 7.134400e-01 0.000000e+00
6.096800e-01 7.929160e-01 0.000000e+00
5.490860e-01 7.134400e-01 0.000000e+00
6.096800e-01 7.929160e-01 0.000000e+00
5.721490e-01 6.952360e-01 0.000000e+00
6.353580e-01 7.726420e-01 0.000000e+00
5.721490e-01 6.952360e-01 0.000000e+00
6.353580e-01 7.726420e-01 0.000000e+00
5.945980e-01 6.762680e-01 0.000000e+00
6.603460e-01 7.515260e-01 0.000000e+00
5.945980e-01 6.762680e-01 0.000000e+00
6.603460e-01 7.515260e-01 0.000000e+00
6.164080e-01 6.565600e-01 0.000000e+00
6.846170e-01 7.295920e-01 0.000000e+00
6.164080e-01 6.565600e-01 0.000000e+00
6.846170e-01 7.295920e-01 0.000000e+00
6.375580e-01 6.361350e-01 0.000000e+00
7.081470e-01 7.068670e-01 0.000000e+00
6.375580e-01 6.361350e-01 0.000000e+00
7.081470e-01 7.068670e-01 0.000000e+00
6.580240e-01 6.150180e-01 0.000000e+00
7.309110e-01 6.833770e-01 0.000000e+00
6.580240e-01 6.150180e-01 0.000000e+00
7.309110e-01 6.833770e-01 0.000000e+00
6.777860e-01 5.932330e-01 0.000000e+00
7.528880e-01 6.591500e-01 0.000000e+00
6.777860e-01 5.932330e-01 0.000000e+00
7.528880e-01 6.591500e-01 0.000000e+00
6.968220e-01 5.708040e-01 0.000000e+00
7.740540e-01 6.342120e-01 0.000000e+00
6.968220e-01 5.708040e-01 0.000000e+00
7.740540e-01 6.342120e-01 0.000000e+00
7.151120e-01 5.477580e-01 0.000000e+00
7.943880e-01 6.085910e-01 0.000000e+00
7.151120e-01 5.477580e-01 0.000000e+00
7.943880e-01 6.085910e-01 0.000000e+00
7.326370e-01 5.241210e-01 0.000000e+00
8.138690e-01 5.823170e-01 0.000000e+00
7.326370e-01 5.241210e-01 0.000000e+00
8.138690e-01 5.823170e-01 0.000000e+00
7.493790e-01 4.999190e-01 0.000000e+00
8.324770e-01 5.554180e-01 0.000000e+00
7.493790e-01 4.999190e-01 0.000000e+00
8.324770e-01 5.554180e-01 0.000000e+00
7.653200e-01 4.751780e-01 0.000000e+00
8.501930e-01 5.279230e-01 0.000000e+00
7.653200e-01 4.751780e-01 0.000000e+00
8.501930e-01 5.279230e-01 0.000000e+00
7.804430e-01 4.499260e-01 0.000000e+00
8.669990e-01 4.998620e-01 0.000000e+00
7.804430e-01 4.499260e-01 0.000000e+00
8.669990e-01 4.998620e-01 0.000000e+00
7.947320e-01 4.241900e-01 0.000000e+00
8.828770e-01 4.712660e-01 0.000000e+00
7.947320e-01 4.241900e-01 0.000000e+00
8.828770e-01 4.712660e-01 0.000000e+00
8.081710e-01 3.979990e-01 0.000000e+00
8.978110e-01 4.421650e-01 0.000000e+00
8.081710e-01 3.979990e-01 0.000000e+00
8.978110e-01 4.421650e-01 0.000000e+00
8.207480e-01 3.713810e-01 0.000000e+00
9.117850e-01 4.125900e-01 0.000000e+00
8.207480e-01 3.713810e-01 0.000000e+00
9.117850e-01 4.125900e-01 0.000000e+00
8.324480e-01 3.443640e-01 0.000000e+00
9.247850e-01 3.825740e-01 0.000000e+00
8.324480e-01 3.443640e-01 0.000000e+00
9.247850e-01 3.825740e-01 0.000000e+00
8.432580e-01 3.169790e-01 0.000000e+00
9.367960e-01 3.521490e-01 0.000000e+00
8.432580e-01 3.169790e-01 0.000000e+00
9.367960e-01 3.521490e-01 0.000000e+00
8.531680e-01 2.892530e-01 0.000000e+00
9.478060e-01 3.213460e-01 0.000000e+00
8.531680e-01 2.892530e-01 0.000000e+00
9.478060e-01 3.213460e-01 0.000000e+00
8.621660e-01 2.612180e-01 0.000000e+00
9.578040e-01 2.902000e-01 0.000000e+00
8.621660e-01 2.612180e-01 0.000000e+00
9.578040e-01 2.902000e-01 0.000000e+00
8.702440e-01 2.329030e-01 0.000000e+00
9.667780e-01 2.587430e-01 0.000000e+00
8.702440e-01 2.329030e-01 0.000000e+00
9.667780e-01 2.587430e-01 0.000000e+00
8.773910e-01 2.043380e-01 0.000000e+00
9.747190e-01 2.270100e-01 0.000000e+00
8.773910e-01 2.043380e-01 0.000000e+00
9.747190e-01 2.270100e-01 0.000000e+00
8.836010e-01 1.755550e-01 0.000000e+00
9.816180e-01 1.950330e-01 0.000000e+00
8.836010e-01 1.755550e-01 0.000000e+00
9.816180e-01 1.950330e-01 0.000000e+00
8.888680e-01 1.465840e-01 0.000000e+00
9.874690e-01 1.628480e-01 0.000000e+00
8.888680e-01 1.465840e-01 0.000000e+00
9.874690e-01 1.628480e-01 0.000000e+00
8.931840e-01 1.174560e-01 0.000000e+00
9.922650e-01 1.304880e-01 0.000000e+00
8.931840e-01 1.174560e-01 0.000000e+00
9.922650e-01 1.304880e-01 0.000000e+00
8.965460e-01 8.820220e-02 0.000000e+00
9.960000e-01 9.798820e-02 0.000000e+00
8.965460e-01 8.820220e-02 0.000000e+00
9.960000e-01 9.798820e-02 0.000000e+00
8.989500e-01 5.885390e-02 0.000000e+00
9.986710e-01 6.538380e-02 0.000000e+00
8.989500e-01 5.885390e-02 0.000000e+00
9.986710e-01 6.538380e-02 0.000000e+00
9.003940e-01 2.944270e-02 0.000000e+00
1.000270e+00 3.270940e-02 0.000000e+00
9.003940e-01 2.944270e-02 0.000000e+00
1.000270e+00 3.270940e-02 0.000000e+00
9.008750e-01 4.411220e-12 0.000000e+00
1.000810e+00 4.900550e-12 0.000000e+00
</DataArray>
</Points>
<Cells>
<DataArray type="Int32" Name="connectivity" format="ascii">
0 1 3 2
4 5 7 6
8 9 11 10
12 13 15 14
16 17 19 18
20 21 23 22
24 25 27 26
28 29 31 30
32 33 35 34
36 37 39 38
40 41 43 42
44 45 47 46
48 49 51 50
52 53 55 54
56 57 59 58
60 61 63 62
64 65 67 66
68 69 71 70
72 73 75 74
76 77 79 78
80 81 83 82
84 85 87 86
88 89 91 90
92 93 95 94
96 97 99 98
100 101 103 102
104 105 107 106
108 109 111 110
112 113 115 114
116 117 119 118
120 121 123 122
124 125 127 126
128 129 131 130
132 133 135 134
136 137 139 138
140 141 143 142
144 145 147 146
148 149 151 150
152 153 155 154
156 157 159 158
160 161 163 162
164 165 167 166
168 169 171 170
172 173 175 174
176 177 179 178
180 181 183 182
184 185 187 186
188 189 191 190
</DataArray>
<DataArray type="Int32" Name="offsets" format="ascii">
4
8
12
16
20
24
28
32
36
40
44
48
52
56
60
64
68
72
76
80
84
88
92
96
100
104
108
112
116
120
124
128
132
136
140
144
148
152
156
160
164
168
172
176
180
184
188
192
</DataArray>
<DataArray type="UInt8" Name="types" format="ascii">
9
9
9
9
9
9
9
9
9
9
9
9
9
9
9
9
9
9
9
9
9
9
9
9
9
9
9
9
9
9
9
9
9
9
9
9
9
9
9
9
9
9
9
9
9
9
9
9
</DataArray>
</Cells>
<PointData>
<DataArray type="Float32" Name="V1" format="ascii">
2.513350e-01
-5.748750e-01
2.977490e-01
-5.284620e-01
1.523000e-01
-3.745630e-01
2.311920e-01
-2.956710e-01
1.138670e-01
-1.856300e-01
1.307090e-01
-1.687880e-01
8.057160e-02
-1.268170e-01
8.346030e-02
-1.239280e-01
5.012380e-02
-9.315450e-02
5.260680e-02
-9.067150e-02
2.839720e-02
-6.802080e-02
3.117450e-02
-6.524360e-02
1.315640e-02
-4.838950e-02
1.598850e-02
-4.555730e-02
2.504090e-03
-3.295960e-02
5.247470e-03
-3.021620e-02
-4.793250e-03
-2.084340e-02
-2.207500e-03
-1.825760e-02
-9.581600e-03
-1.137780e-02
-7.189670e-03
-8.985870e-03
-1.247960e-02
-4.052670e-03
-1.030060e-02
-1.873670e-03
-1.395780e-02
1.535330e-03
-1.199950e-02
3.493580e-03
-1.438140e-02
5.712550e-03
-1.264350e-02
7.450410e-03
-1.403700e-02
8.747390e-03
-1.251310e-02
1.027120e-02
-1.315020e-02
1.086280e-02
-1.182960e-02
1.218330e-02
-1.189830e-02
1.224480e-02
-1.076750e-02
1.337560e-02
-1.041970e-02
1.304890e-02
-9.463270e-03
1.400530e-02
-8.821510e-03
1.340460e-02
-8.023060e-03
1.420300e-02
-7.185080e-03
1.341940e-02
-6.528010e-03
1.407650e-02
-5.571120e-03
1.318220e-02
-5.039030e-03
1.371430e-02
-4.023450e-03
1.276530e-02
-3.600600e-03
1.318820e-02
-2.572410e-03
1.222770e-02
-2.243920e-03
1.255620e-02
-1.237530e-03
1.161610e-02
-9.895870e-04
1.186400e-02
-2.982750e-05
1.096760e-02
1.501820e-04
1.114760e-02
1.046250e-03
1.031070e-02
1.169730e-03
1.043420e-02
1.991270e-03
9.666880e-03
2.068390e-03
9.744000e-03
2.809530e-03
9.051840e-03
2.849250e-03
9.091560e-03
3.507960e-03
8.476400e-03
3.518100e-03
8.486550e-03
4.095280e-03
7.947530e-03
4.082580e-03
7.934840e-03
4.581310e-03
7.469090e-03
4.551510e-03
7.439290e-03
4.976420e-03
7.042480e-03
4.934340e-03
7.000400e-03
5.291110e-03
6.667230e-03
5.240770e-03
6.616890e-03
5.535710e-03
6.341460e-03
5.480390e-03
6.286140e-03
5.720120e-03
6.062280e-03
5.662470e-03
6.004630e-03
5.853650e-03
5.826100e-03
5.795770e-03
5.768220e-03
5.944940e-03
5.628920e-03
5.888460e-03
5.572430e-03
6.001870e-03
5.466520e-03
5.948010e-03
5.412660e-03
6.031530e-03
5.334660e-03
5.981190e-03
5.284330e-03
6.040240e-03
5.229180e-03
5.994050e-03
5.183000e-03
6.033550e-03
5.146110e-03
5.991940e-03
5.104500e-03
6.016290e-03
5.081760e-03
5.979500e-03
5.044970e-03
5.992570e-03
5.032760e-03
5.960730e-03
5.000920e-03
5.965880e-03
4.996110e-03
5.939050e-03
4.969270e-03
5.939110e-03
4.969210e-03
5.917250e-03
4.947350e-03
5.914550e-03
4.949870e-03
5.897640e-03
4.932950e-03
5.894020e-03
4.936330e-03
5.881990e-03
4.924300e-03
5.878830e-03
4.927250e-03
5.871630e-03
4.920050e-03
5.869830e-03
4.921740e-03
5.867430e-03
4.919350e-03
</DataArray>
<DataArray type="Float32" Name="V2" format="ascii">
8.909750e-01
9.900000e-01
8.911320e-01
9.905330e-01
8.911320e-01
9.905330e-01
8.916430e-01
9.918030e-01
8.916430e-01
9.918030e-01
8.923360e-01
9.926190e-01
8.923360e-01
9.926190e-01
8.931090e-01
9.933590e-01
8.931090e-01
9.933590e-01
8.938780e-01
9.940890e-01
8.938780e-01
9.940890e-01
8.946230e-01
9.947990e-01
8.946230e-01
9.947990e-01
8.953330e-01
9.954770e-01
8.953330e-01
9.954770e-01
8.960000e-01
9.961150e-01
8.960000e-01
9.961150e-01
8.966180e-01
9.967060e-01
8.966180e-01
9.967060e-01
8.971840e-01
9.972490e-01
8.971840e-01
9.972490e-01
8.976970e-01
9.977400e-01
8.976970e-01
9.977400e-01
8.981580e-01
9.981820e-01
8.981580e-01
9.981820e-01
8.985680e-01
9.985750e-01
8.985680e-01
9.985750e-01
8.989300e-01
9.989220e-01
8.989300e-01
9.989220e-01
8.992460e-01
9.992250e-01
8.992460e-01
9.992250e-01
8.995210e-01
9.994890e-01
8.995210e-01
9.994890e-01
8.997570e-01
9.997160e-01
8.997570e-01
9.997160e-01
8.999580e-01
9.999100e-01
8.999580e-01
9.999100e-01
9.001290e-01
1.000070e+00
9.001290e-01
1.000070e+00
9.002730e-01
1.000210e+00
9.002730e-01
1.000210e+00
9.003920e-01
1.000330e+00
9.003920e-01
1.000330e+00
9.004910e-01
1.000420e+00
9.004910e-01
1.000420e+00
9.005720e-01
1.000500e+00
9.005720e-01
1.000500e+00
9.006370e-01
1.000570e+00
9.006370e-01
1.000570e+00
9.006900e-01
1.000620e+00
9.006900e-01
1.000620e+00
9.007320e-01
1.000660e+00
9.007320e-01
1.000660e+00
9.007650e-01
1.000690e+00
9.007650e-01
1.000690e+00
9.007910e-01
1.000720e+00
9.007910e-01
1.000720e+00
9.008110e-01
1.000740e+00
9.008110e-01
1.000740e+00
9.008260e-01
1.000750e+00
9.008260e-01
1.000750e+00
9.008370e-01
1.000770e+00
9.008370e-01
1.000770e+00
9.008460e-01
1.000770e+00
9.008460e-01
1.000770e+00
9.008530e-01
1.000780e+00
9.008530e-01
1.000780e+00
9.008570e-01
1.000790e+00
9.008570e-01
1.000790e+00
9.008610e-01
1.000790e+00
9.008610e-01
1.000790e+00
9.008640e-01
1.000790e+00
9.008640e-01
1.000790e+00
9.008660e-01
1.000800e+00
9.008660e-01
1.000800e+00
9.008680e-01
1.000800e+00
9.008680e-01
1.000800e+00
9.008690e-01
1.000800e+00
9.008690e-01
1.000800e+00
9.008700e-01
1.000800e+00
9.008700e-01
1.000800e+00
9.008710e-01
1.000800e+00
9.008710e-01
1.000800e+00
9.008720e-01
1.000810e+00
9.008720e-01
1.000810e+00
9.008730e-01
1.000810e+00
9.008730e-01
1.000810e+00
9.008740e-01
1.000810e+00
9.008740e-01
1.000810e+00
9.008740e-01
1.000810e+00
9.008740e-01
1.000810e+00
9.008750e-01
1.000810e+00
9.008750e-01
1.000810e+00
9.008750e-01
1.000810e+00
9.008750e-01
1.000810e+00
9.008750e-01
1.000810e+00
</DataArray>
<DataArray type="Float32" Name="V3" format="ascii">
0.000000e+00
0.000000e+00
5.653650e-04
8.478700e-05
5.653650e-04
8.478700e-05
1.139050e-03
4.430590e-05
1.139050e-03
4.430590e-05
1.571950e-03
6.593760e-06
1.571950e-03
6.593760e-06
1.833520e-03
4.208670e-05
1.833520e-03
4.208670e-05
2.000020e-03
1.204090e-04
2.000020e-03
1.204090e-04
2.102090e-03
2.218140e-04
2.102090e-03
2.218140e-04
2.155440e-03
3.325760e-04
2.155440e-03
3.325760e-04
2.170670e-03
4.437460e-04
2.170670e-03
4.437460e-04
2.155990e-03
5.496340e-04
2.155990e-03
5.496340e-04
2.118080e-03
6.466950e-04
2.118080e-03
6.466950e-04
2.062430e-03
7.328250e-04
2.062430e-03
7.328250e-04
1.993630e-03
8.069210e-04
1.993630e-03
8.069210e-04
1.915440e-03
8.685910e-04
1.915440e-03
8.685910e-04
1.830990e-03
9.179490e-04
1.830990e-03
9.179490e-04
1.742820e-03
9.554640e-04
1.742820e-03
9.554640e-04
1.652980e-03
9.818490e-04
1.652980e-03
9.818490e-04
1.563110e-03
9.979750e-04
1.563110e-03
9.979750e-04
1.474470e-03
1.004800e-03
1.474470e-03
1.004800e-03
1.388020e-03
1.003330e-03
1.388020e-03
1.003330e-03
1.304460e-03
9.945510e-04
1.304460e-03
9.945510e-04
1.224260e-03
9.794390e-04
1.224260e-03
9.794390e-04
1.147730e-03
9.589110e-04
1.147730e-03
9.589110e-04
1.075000e-03
9.338210e-04
1.075000e-03
9.338210e-04
1.006100e-03
9.049510e-04
1.006100e-03
9.049510e-04
9.409780e-04
8.730040e-04
9.409780e-04
8.730040e-04
8.794840e-04
8.386060e-04
8.794840e-04
8.386060e-04
8.214300e-04
8.023040e-04
8.214300e-04
8.023040e-04
7.665900e-04
7.645700e-04
7.665900e-04
7.645700e-04
7.147130e-04
7.258080e-04
7.147130e-04
7.258080e-04
6.655360e-04
6.863560e-04
6.655360e-04
6.863560e-04
6.187920e-04
6.464920e-04
6.187920e-04
6.464920e-04
5.742190e-04
6.064430e-04
5.742190e-04
6.064430e-04
5.315640e-04
5.663870e-04
5.315640e-04
5.663870e-04
4.905850e-04
5.264640e-04
4.905850e-04
5.264640e-04
4.510600e-04
4.867740e-04
4.510600e-04
4.867740e-04
4.127800e-04
4.473890e-04
4.127800e-04
4.473890e-04
3.755590e-04
4.083560e-04
3.755590e-04
4.083560e-04
3.392280e-04
3.697000e-04
3.392280e-04
3.697000e-04
3.036390e-04
3.314260e-04
3.036390e-04
3.314260e-04
2.686590e-04
2.935270e-04
2.686590e-04
2.935270e-04
2.341770e-04
2.559830e-04
2.341770e-04
2.559830e-04
2.000920e-04
2.187660e-04
2.000920e-04
2.187660e-04
1.663220e-04
1.818400e-04
1.663220e-04
1.818400e-04
1.327940e-04
1.451640e-04
1.327940e-04
1.451640e-04
9.944820e-05
1.086910e-04
9.944820e-05
1.086910e-04
6.623070e-05
7.237350e-05
6.623070e-05
7.237350e-05
3.309530e-05
3.616050e-05
3.309530e-05
3.616050e-05
0.000000e+00
0.000000e+00
</DataArray>
<DataArray type="Float32" Name="V4" format="ascii">
9.000000e-01
1.000000e+00
9.000000e-01
1.000000e+00
9.000000e-01
1.000000e+00
9.000000e-01
1.000000e+00
9.000000e-01
1.000000e+00
9.000000e-01
1.000000e+00
9.000000e-01
1.000000e+00
9.000000e-01
1.000000e+00
9.000000e-01
1.000000e+00
9.000000e-01
1.000000e+00
9.000000e-01
1.000000e+00
9.000000e-01
1.000000e+00
9.000000e-01
1.000000e+00
9.000000e-01
1.000000e+00
9.000000e-01
1.000000e+00
9.000000e-01
1.000000e+00
9.000000e-01
1.000000e+00
9.000000e-01
1.000000e+00
9.000000e-01
1.000000e+00
9.000000e-01
1.000000e+00
9.000000e-01
1.000000e+00
9.000000e-01
1.000000e+00
9.000000e-01
1.000000e+00
9.000000e-01
1.000000e+00
9.000000e-01
1.000000e+00
9.000000e-01
1.000000e+00
9.000000e-01
1.000000e+00
9.000000e-01
1.000000e+00
9.000000e-01
1.000000e+00
9.000000e-01
1.000000e+00
9.000000e-01
1.000000e+00
9.000000e-01
1.000000e+00
9.000000e-01
1.000000e+00
9.000000e-01
1.000000e+00
9.000000e-01
1.000000e+00
9.000000e-01
1.000000e+00
9.000000e-01
1.000000e+00
9.000000e-01
1.000000e+00
9.000000e-01
1.000000e+00
9.000000e-01
1.000000e+00
9.000000e-01
1.000000e+00
9.000000e-01
1.000000e+00
9.000000e-01
1.000000e+00
9.000000e-01
1.000000e+00
9.000000e-01
1.000000e+00
9.000000e-01
1.000000e+00
9.000000e-01
1.000000e+00
9.000000e-01
1.000000e+00
9.000000e-01
1.000000e+00
9.000000e-01
1.000000e+00
9.000000e-01
1.000000e+00
9.000000e-01
1.000000e+00
9.000000e-01
1.000000e+00
9.000000e-01
1.000000e+00
9.000000e-01
1.000000e+00
9.000000e-01
1.000000e+00
9.000000e-01
1.000000e+00
9.000000e-01
1.000000e+00
9.000000e-01
1.000000e+00
9.000000e-01
1.000000e+00
9.000000e-01
1.000000e+00
9.000000e-01
1.000000e+00
9.000000e-01
1.000000e+00
9.000000e-01
1.000000e+00
9.000000e-01
1.000000e+00
9.000000e-01
1.000000e+00
9.000000e-01
1.000000e+00
9.000000e-01
1.000000e+00
9.000000e-01
1.000000e+00
9.000000e-01
1.000000e+00
9.000000e-01
1.000000e+00
9.000000e-01
1.000000e+00
9.000000e-01
1.000000e+00
9.000000e-01
1.000000e+00
9.000000e-01
1.000000e+00
9.000000e-01
1.000000e+00
9.000000e-01
1.000000e+00
9.000000e-01
1.000000e+00
9.000000e-01
1.000000e+00
9.000000e-01
1.000000e+00
9.000000e-01
1.000000e+00
9.000000e-01
1.000000e+00
9.000000e-01
1.000000e+00
9.000000e-01
1.000000e+00
9.000000e-01
1.000000e+00
9.000000e-01
1.000000e+00
9.000000e-01
1.000000e+00
9.000000e-01
1.000000e+00
9.000000e-01
1.000000e+00
9.000000e-01
1.000000e+00
9.000000e-01
1.000000e+00
9.000000e-01
1.000000e+00
9.000000e-01
1.000000e+00
9.000000e-01
1.000000e+00
9.000000e-01
1.000000e+00
9.000000e-01
1.000000e+00
</DataArray>
<DataArray type="Float32" Name="V5" format="ascii">
0.000000e+00
0.000000e+00
3.272490e-02
3.272490e-02
3.272490e-02
3.272490e-02
6.544980e-02
6.544980e-02
6.544980e-02
6.544980e-02
9.817480e-02
9.817480e-02
9.817480e-02
9.817480e-02
1.309000e-01
1.309000e-01
1.309000e-01
1.309000e-01
1.636250e-01
1.636250e-01
1.636250e-01
1.636250e-01
1.963500e-01
1.963500e-01
1.963500e-01
1.963500e-01
2.290740e-01
2.290740e-01
2.290740e-01
2.290740e-01
2.617990e-01
2.617990e-01
2.617990e-01
2.617990e-01
2.945240e-01
2.945240e-01
2.945240e-01
2.945240e-01
3.272490e-01
3.272490e-01
3.272490e-01
3.272490e-01
3.599740e-01
3.599740e-01
3.599740e-01
3.599740e-01
3.926990e-01
3.926990e-01
3.926990e-01
3.926990e-01
4.254240e-01
4.254240e-01
4.254240e-01
4.254240e-01
4.581490e-01
4.581490e-01
4.581490e-01
4.581490e-01
4.908740e-01
4.908740e-01
4.908740e-01
4.908740e-01
5.235990e-01
5.235990e-01
5.235990e-01
5.235990e-01
5.563240e-01
5.563240e-01
5.563240e-01
5.563240e-01
5.890490e-01
5.890490e-01
5.890490e-01
5.890490e-01
6.217740e-01
6.217740e-01
6.217740e-01
6.217740e-01
6.544980e-01
6.544980e-01
6.544980e-01
6.544980e-01
6.872230e-01
6.872230e-01
6.872230e-01
6.872230e-01
7.199480e-01
7.199480e-01
7.199480e-01
7.199480e-01
7.526730e-01
7.526730e-01
7.526730e-01
7.526730e-01
7.853980e-01
7.853980e-01
7.853980e-01
7.853980e-01
8.181230e-01
8.181230e-01
8.181230e-01
8.181230e-01
8.508480e-01
8.508480e-01
8.508480e-01
8.508480e-01
8.835730e-01
8.835730e-01
8.835730e-01
8.835730e-01
9.162980e-01
9.162980e-01
9.162980e-01
9.162980e-01
9.490230e-01
9.490230e-01
9.490230e-01
9.490230e-01
9.817480e-01
9.817480e-01
9.817480e-01
9.817480e-01
1.014470e+00
1.014470e+00
1.014470e+00
1.014470e+00
1.047200e+00
1.047200e+00
1.047200e+00
1.047200e+00
1.079920e+00
1.079920e+00
1.079920e+00
1.079920e+00
1.112650e+00
1.112650e+00
1.112650e+00
1.112650e+00
1.145370e+00
1.145370e+00
1.145370e+00
1.145370e+00
1.178100e+00
1.178100e+00
1.178100e+00
1.178100e+00
1.210820e+00
1.210820e+00
1.210820e+00
1.210820e+00
1.243550e+00
1.243550e+00
1.243550e+00
1.243550e+00
1.276270e+00
1.276270e+00
1.276270e+00
1.276270e+00
1.309000e+00
1.309000e+00
1.309000e+00
1.309000e+00
1.341720e+00
1.341720e+00
1.341720e+00
1.341720e+00
1.374450e+00
1.374450e+00
1.374450e+00
1.374450e+00
1.407170e+00
1.407170e+00
1.407170e+00
1.407170e+00
1.439900e+00
1.439900e+00
1.439900e+00
1.439900e+00
1.472620e+00
1.472620e+00
1.472620e+00
1.472620e+00
1.505350e+00
1.505350e+00
1.505350e+00
1.505350e+00
1.538070e+00
1.538070e+00
1.538070e+00
1.538070e+00
1.570800e+00
1.570800e+00
</DataArray>
</PointData>
</Piece></UnstructuredGrid>
</VTKFile>
