<?xml version="1.0"?>
<VTKFile type="UnstructuredGrid" version="0.1" byte_order="LittleEndian" compressor="vtkZLibDataCompressor">
<UnstructuredGrid>
<Piece NumberOfPoints="192" NumberOfCells="48">
<Points>
<DataArray type="Float32" NumberOfComponents="3" format="ascii">
0.000000e+00 5.442710e-01 0.000000e+00
0.000000e+00 6.300000e-01 0.000000e+00
3.361190e-02 5.442840e-01 0.000000e+00
3.358270e-02 6.300000e-01 0.000000e+00
3.361190e-02 5.442840e-01 0.000000e+00
3.358270e-02 6.300000e-01 0.000000e+00
6.722250e-02 5.443220e-01 0.000000e+00
6.716390e-02 6.300000e-01 0.000000e+00
6.722250e-02 5.443220e-01 0.000000e+00
6.716390e-02 6.300000e-01 0.000000e+00
1.008300e-01 5.443870e-01 0.000000e+00
1.007420e-01 6.300000e-01 0.000000e+00
1.008300e-01 5.443870e-01 0.000000e+00
1.007420e-01 6.300000e-01 0.000000e+00
1.344340e-01 5.444770e-01 0.000000e+00
1.343170e-01 6.300000e-01 0.000000e+00
1.344340e-01 5.444770e-01 0.000000e+00
1.343170e-01 6.300000e-01 0.000000e+00
1.680320e-01 5.445940e-01 0.000000e+00
1.678860e-01 6.300000e-01 0.000000e+00
1.680320e-01 5.445940e-01 0.000000e+00
1.678860e-01 6.300000e-01 0.000000e+00
2.016230e-01 5.447350e-01 0.000000e+00
2.014480e-01 6.300000e-01 0.000000e+00
2.016230e-01 5.447350e-01 0.000000e+00
2.014480e-01 6.300000e-01 0.000000e+00
2.352040e-01 5.449030e-01 0.000000e+00
2.350000e-01 6.300000e-01 0.000000e+00
2.352040e-01 5.449030e-01 0.000000e+00
2.350000e-01 6.300000e-01 0.000000e+00
2.687760e-01 5.450960e-01 0.000000e+00
2.685440e-01 6.300000e-01 0.000000e+00
2.687760e-01 5.450960e-01 0.000000e+00
2.685440e-01 6.300000e-01 0.000000e+00
3.023370e-01 5.453150e-01 0.000000e+00
3.020760e-01 6.300000e-01 0.000000e+00
3.023370e-01 5.453150e-01 0.000000e+00
3.020760e-01 6.300000e-01 0.000000e+00
3.358860e-01 5.455590e-01 0.000000e+00
3.355960e-01 6.300000e-01 0.000000e+00
3.358860e-01 5.455590e-01 0.000000e+00
3.355960e-01 6.300000e-01 0.000000e+00
3.694200e-01 5.458290e-01 0.000000e+00
3.691020e-01 6.300000e-01 0.000000e+00
3.694200e-01 5.458290e-01 0.000000e+00
3.691020e-01 6.300000e-01 0.000000e+00
4.029400e-01 5.461240e-01 0.000000e+00
4.025910e-01 6.300000e-01 0.000000e+00
4.029400e-01 5.461240e-01 0.000000e+00
4.025910e-01 6.300000e-01 0.000000e+00
4.364450e-01 5.464460e-01 0.000000e+00
4.360640e-01 6.300000e-01 0.000000e+00
4.364450e-01 5.464460e-01 0.000000e+00
4.360640e-01 6.300000e-01 0.000000e+00
4.699330e-01 5.467940e-01 0.000000e+00
4.695200e-01 6.300000e-01 0.000000e+00
4.699330e-01 5.467940e-01 0.000000e+00
4.695200e-01 6.300000e-01 0.000000e+00
5.034040e-01 5.471730e-01 0.000000e+00
5.029590e-01 6.300000e-01 0.000000e+00
5.034040e-01 5.471730e-01 0.000000e+00
5.029590e-01 6.300000e-01 0.000000e+00
5.368540e-01 5.475870e-01 0.000000e+00
5.363900e-01 6.300000e-01 0.000000e+00
5.368540e-01 5.475870e-01 0.000000e+00
5.363900e-01 6.300000e-01 0.000000e+00
5.702740e-01 5.480450e-01 0.000000e+00
5.698310e-01 6.300000e-01 0.000000e+00
5.702740e-01 5.480450e-01 0.000000e+00
5.698310e-01 6.300000e-01 0.000000e+00
6.036350e-01 5.485570e-01 0.000000e+00
6.033220e-01 6.300000e-01 0.000000e+00
6.036350e-01 5.485570e-01 0.000000e+00
6.033220e-01 6.300000e-01 0.000000e+00
6.368680e-01 5.491230e-01 0.000000e+00
6.369370e-01 6.300000e-01 0.000000e+00
6.368680e-01 5.491230e-01 0.000000e+00
6.369370e-01 6.300000e-01 0.000000e+00
6.698300e-01 5.497000e-01 0.000000e+00
6.707930e-01 6.300000e-01 0.000000e+00
6.698300e-01 5.497000e-01 0.000000e+00
6.707930e-01 6.300000e-01 0.000000e+00
7.022720e-01 5.501230e-01 0.000000e+00
7.050250e-01 6.300000e-01 0.000000e+00
7.022720e-01 5.501230e-01 0.000000e+00
7.050250e-01 6.300000e-01 0.000000e+00
7.338880e-01 5.499520e-01 0.000000e+00
7.396640e-01 6.300000e-01 0.000000e+00
7.338880e-01 5.499520e-01 0.000000e+00
7.396640e-01 6.300000e-01 0.000000e+00
7.648350e-01 5.486000e-01 0.000000e+00
7.742740e-01 6.289220e-01 0.000000e+00
7.648350e-01 5.486000e-01 0.000000e+00
7.742740e-01 6.289220e-01 0.000000e+00
7.948230e-01 5.453850e-01 0.000000e+00
8.089120e-01 6.244800e-01 0.000000e+00
7.948230e-01 5.453850e-01 0.000000e+00
8.089120e-01 6.244800e-01 0.000000e+00
8.240140e-01 5.399680e-01 0.000000e+00
8.434060e-01 6.173230e-01 0.000000e+00
8.240140e-01 5.399680e-01 0.000000e+00
8.434060e-01 6.173230e-01 0.000000e+00
8.524900e-01 5.322480e-01 0.000000e+00
8.773610e-01 6.074200e-01 0.000000e+00
8.524900e-01 5.322480e-01 0.000000e+00
8.773610e-01 6.074200e-01 0.000000e+00
8.802150e-01 5.222650e-01 0.000000e+00
9.104510e-01 5.948560e-01 0.000000e+00
8.802150e-01 5.222650e-01 0.000000e+00
9.104510e-01 5.948560e-01 0.000000e+00
9.071100e-01 5.101080e-01 0.000000e+00
9.424280e-01 5.797900e-01 0.000000e+00
9.071100e-01 5.101080e-01 0.000000e+00
9.424280e-01 5.797900e-01 0.000000e+00
9.330880e-01 4.958950e-01 0.000000e+00
9.731170e-01 5.624170e-01 0.000000e+00
9.330880e-01 4.958950e-01 0.000000e+00
9.731170e-01 5.624170e-01 0.000000e+00
9.580620e-01 4.797590e-01 0.000000e+00
1.002400e+00 5.429410e-01 0.000000e+00
9.580620e-01 4.797590e-01 0.000000e+00
1.002400e+00 5.429410e-01 0.000000e+00
9.819530e-01 4.618440e-01 0.000000e+00
1.030190e+00 5.215640e-01 0.000000e+00
9.819530e-01 4.618440e-01 0.000000e+00
1.030190e+00 5.215640e-01 0.000000e+00
1.004700e+00 4.422820e-01 0.000000e+00
1.056450e+00 4.984640e-01 0.000000e+00
1.004700e+00 4.422820e-01 0.000000e+00
1.056450e+00 4.984640e-01 0.000000e+00
1.026240e+00 4.212230e-01 0.000000e+00
1.081130e+00 4.738270e-01 0.000000e+00
1.026240e+00 4.212230e-01 0.000000e+00
1.081130e+00 4.738270e-01 0.000000e+00
1.046540e+00 3.987850e-01 0.000000e+00
1.104230e+00 4.477910e-01 0.000000e+00
1.046540e+00 3.987850e-01 0.000000e+00
1.104230e+00 4.477910e-01 0.000000e+00
1.065540e+00 3.751070e-01 0.000000e+00
1.125740e+00 4.205160e-01 0.000000e+00
1.065540e+00 3.751070e-01 0.000000e+00
1.125740e+00 4.205160e-01 0.000000e+00
1.083220e+00 3.502930e-01 0.000000e+00
1.145650e+00 3.921130e-01 0.000000e+00
1.083220e+00 3.502930e-01 0.000000e+00
1.145650e+00 3.921130e-01 0.000000e+00
1.099560e+00 3.244690e-01 0.000000e+00
1.163960e+00 3.627160e-01 0.000000e+00
1.099560e+00 3.244690e-01 0.000000e+00
1.163960e+00 3.627160e-01 0.000000e+00
1.114530e+00 2.977250e-01 0.000000e+00
1.180670e+00 3.324170e-01 0.000000e+00
1.114530e+00 2.977250e-01 0.000000e+00
1.180670e+00 3.324170e-01 0.000000e+00
1.128120e+00 2.701760e-01 0.000000e+00
1.195780e+00 3.013340e-01 0.000000e+00
1.128120e+00 2.701760e-01 0.000000e+00
1.195780e+00 3.013340e-01 0.000000e+00
1.140310e+00 2.419010e-01 0.000000e+00
1.209300e+00 2.695420e-01 0.000000e+00
1.140310e+00 2.419010e-01 0.000000e+00
1.209300e+00 2.695420e-01 0.000000e+00
1.151080e+00 2.130050e-01 0.000000e+00
1.221230e+00 2.371490e-01 0.000000e+00
1.151080e+00 2.130050e-01 0.000000e+00
1.221230e+00 2.371490e-01 0.000000e+00
1.160440e+00 1.835570e-01 0.000000e+00
1.231560e+00 2.042200e-01 0.000000e+00
1.160440e+00 1.835570e-01 0.000000e+00
1.231560e+00 2.042200e-01 0.000000e+00
1.168370e+00 1.536590e-01 0.000000e+00
1.240300e+00 1.708570e-01 0.000000e+00
1.168370e+00 1.536590e-01 0.000000e+00
1.240300e+00 1.708570e-01 0.000000e+00
1.174870e+00 1.233730e-01 0.000000e+00
1.247450e+00 1.371160e-01 0.000000e+00
1.174870e+00 1.233730e-01 0.000000e+00
1.247450e+00 1.371160e-01 0.000000e+00
1.179930e+00 9.279440e-02 0.000000e+00
1.253010e+00 1.030930e-01 0.000000e+00
1.179930e+00 9.279440e-02 0.000000e+00
1.253010e+00 1.030930e-01 0.000000e+00
1.183550e+00 6.198240e-02 0.000000e+00
1.256990e+00 6.884390e-02 0.000000e+00
1.183550e+00 6.198240e-02 0.000000e+00
1.256990e+00 6.884390e-02 0.000000e+00
1.185720e+00 3.103090e-02 0.000000e+00
1.259370e+00 3.446080e-02 0.000000e+00
1.185720e+00 3.103090e-02 0.000000e+00
1.259370e+00 3.446080e-02 0.000000e+00
1.186440e+00 -4.358040e-06 0.000000e+00
1.260160e+00 -4.628840e-06 0.000000e+00
</DataArray>
</Points>
<Cells>
<DataArray type="Int32" Name="connectivity" format="ascii">
0 1 3 2
4 5 7 6
8 9 11 10
12 13 15 14
16 17 19 18
20 21 23 22
24 25 27 26
28 29 31 30
32 33 35 34
36 37 39 38
40 41 43 42
44 45 47 46
48 49 51 50
52 53 55 54
56 57 59 58
60 61 63 62
64 65 67 66
68 69 71 70
72 73 75 74
76 77 79 78
80 81 83 82
84 85 87 86
88 89 91 90
92 93 95 94
96 97 99 98
100 101 103 102
104 105 107 106
108 109 111 110
112 113 115 114
116 117 119 118
120 121 123 122
124 125 127 126
128 129 131 130
132 133 135 134
136 137 139 138
140 141 143 142
144 145 147 146
148 149 151 150
152 153 155 154
156 157 159 158
160 161 163 162
164 165 167 166
168 169 171 170
172 173 175 174
176 177 179 178
180 181 183 182
184 185 187 186
188 189 191 190
</DataArray>
<DataArray type="Int32" Name="offsets" format="ascii">
4
8
12
16
20
24
28
32
36
40
44
48
52
56
60
64
68
72
76
80
84
88
92
96
100
104
108
112
116
120
124
128
132
136
140
144
148
152
156
160
164
168
172
176
180
184
188
192
</DataArray>
<DataArray type="UInt8" Name="types" format="ascii">
9
9
9
9
9
9
9
9
9
9
9
9
9
9
9
9
9
9
9
9
9
9
9
9
9
9
9
9
9
9
9
9
9
9
9
9
9
9
9
9
9
9
9
9
9
9
9
9
</DataArray>
</Cells>
<PointData>
<DataArray type="Float32" Name="V1" format="ascii">
1.850950e+00
-2.511320e-01
1.852710e+00
-2.493720e-01
1.853030e+00
-2.492620e-01
1.857170e+00
-2.451170e-01
1.857670e+00
-2.451100e-01
1.864910e+00
-2.378730e-01
1.865450e+00
-2.380650e-01
1.875730e+00
-2.277850e-01
1.876370e+00
-2.281440e-01
1.889670e+00
-2.148350e-01
1.890410e+00
-2.153480e-01
1.906760e+00
-1.990050e-01
1.907620e+00
-1.996700e-01
1.927010e+00
-1.802810e-01
1.928000e+00
-1.811000e-01
1.950460e+00
-1.586460e-01
1.951610e+00
-1.596290e-01
1.977150e+00
-1.340840e-01
1.978480e+00
-1.352480e-01
2.007140e+00
-1.065840e-01
2.008680e+00
-1.079630e-01
2.040490e+00
-7.614890e-02
2.042310e+00
-7.779900e-02
2.077290e+00
-4.281450e-02
2.079490e+00
-4.482490e-02
2.117630e+00
-6.679110e-03
2.120340e+00
-9.164380e-03
2.161560e+00
3.205860e-02
2.164870e+00
2.903210e-02
2.208940e+00
7.309480e-02
2.212640e+00
6.973890e-02
2.259030e+00
1.161330e-01
2.261940e+00
1.135750e-01
2.309780e+00
1.614100e-01
2.308100e+00
1.631570e-01
2.356210e+00
2.112650e-01
2.340210e+00
2.261920e-01
2.388080e+00
2.740670e-01
2.336110e+00
3.216860e-01
2.387330e+00
3.729020e-01
2.257620e+00
4.903700e-01
2.329220e+00
5.619690e-01
2.054810e+00
8.088560e-01
2.195710e+00
9.497610e-01
1.740760e+00
1.424340e+00
1.916950e+00
1.600530e+00
1.618300e+00
1.848700e+00
1.691960e+00
1.922370e+00
1.547510e+00
2.053040e+00
1.618930e+00
2.124460e+00
1.539560e+00
2.197590e+00
1.612050e+00
2.270080e+00
1.576160e+00
2.303240e+00
1.647740e+00
2.374820e+00
1.639490e+00
2.382460e+00
1.708690e+00
2.451660e+00
1.717350e+00
2.443690e+00
1.783290e+00
2.509630e+00
1.801710e+00
2.492660e+00
1.863880e+00
2.554830e+00
1.887320e+00
2.533230e+00
1.945450e+00
2.591350e+00
1.970890e+00
2.567910e+00
2.024890e+00
2.621920e+00
2.050420e+00
2.598370e+00
2.100280e+00
2.648230e+00
2.124780e+00
2.625630e+00
2.170590e+00
2.671450e+00
2.193450e+00
2.650380e+00
2.235320e+00
2.692250e+00
2.256210e+00
2.672980e+00
2.294280e+00
2.711050e+00
2.313120e+00
2.693700e+00
2.347520e+00
2.728100e+00
2.364290e+00
2.712640e+00
2.395190e+00
2.743530e+00
2.409990e+00
2.729900e+00
2.437500e+00
2.757420e+00
2.450420e+00
2.745510e+00
2.474690e+00
2.769790e+00
2.485840e+00
2.759510e+00
2.506980e+00
2.780650e+00
2.516470e+00
2.771900e+00
2.534590e+00
2.790010e+00
2.542540e+00
2.782690e+00
2.557710e+00
2.797860e+00
2.564190e+00
2.791880e+00
2.576510e+00
2.804200e+00
2.581610e+00
2.799500e+00
2.591120e+00
2.809010e+00
2.594890e+00
2.805540e+00
2.601650e+00
2.812300e+00
2.604140e+00
2.810000e+00
2.608190e+00
2.814040e+00
2.609420e+00
2.812900e+00
2.610770e+00
2.814250e+00
</DataArray>
<DataArray type="Float32" Name="V2" format="ascii">
5.442710e-01
6.300000e-01
5.450920e-01
6.307610e-01
5.450920e-01
6.307610e-01
5.475530e-01
6.330440e-01
5.475530e-01
6.330440e-01
5.516490e-01
6.368410e-01
5.516490e-01
6.368410e-01
5.573660e-01
6.421420e-01
5.573660e-01
6.421420e-01
5.646910e-01
6.489330e-01
5.646910e-01
6.489330e-01
5.736030e-01
6.571950e-01
5.736030e-01
6.571950e-01
5.840780e-01
6.669050e-01
5.840780e-01
6.669050e-01
5.960870e-01
6.780370e-01
5.960870e-01
6.780370e-01
6.095980e-01
6.905600e-01
6.095980e-01
6.905600e-01
6.245740e-01
7.044400e-01
6.245740e-01
7.044400e-01
6.409730e-01
7.196370e-01
6.409730e-01
7.196370e-01
6.587520e-01
7.361090e-01
6.587520e-01
7.361090e-01
6.778610e-01
7.538110e-01
6.778610e-01
7.538110e-01
6.982510e-01
7.726930e-01
6.982510e-01
7.726930e-01
7.198670e-01
7.927040e-01
7.198670e-01
7.927040e-01
7.426520e-01
8.137910e-01
7.426520e-01
8.137910e-01
7.665450e-01
8.359070e-01
7.665450e-01
8.359070e-01
7.914700e-01
8.590130e-01
7.914700e-01
8.590130e-01
8.173140e-01
8.830950e-01
8.173140e-01
8.830950e-01
8.438730e-01
9.081650e-01
8.438730e-01
9.081650e-01
8.707670e-01
9.342600e-01
8.707670e-01
9.342600e-01
8.973620e-01
9.613530e-01
8.973620e-01
9.613530e-01
9.232390e-01
9.883150e-01
9.232390e-01
9.883150e-01
9.476700e-01
1.013560e+00
9.476700e-01
1.013560e+00
9.705360e-01
1.037570e+00
9.705360e-01
1.037570e+00
9.918720e-01
1.060130e+00
9.918720e-01
1.060130e+00
1.011740e+00
1.081160e+00
1.011740e+00
1.081160e+00
1.030190e+00
1.100630e+00
1.030190e+00
1.100630e+00
1.047300e+00
1.118590e+00
1.047300e+00
1.118590e+00
1.063140e+00
1.135110e+00
1.063140e+00
1.135110e+00
1.077760e+00
1.150260e+00
1.077760e+00
1.150260e+00
1.091240e+00
1.164140e+00
1.091240e+00
1.164140e+00
1.103630e+00
1.176830e+00
1.103630e+00
1.176830e+00
1.114990e+00
1.188410e+00
1.114990e+00
1.188410e+00
1.125370e+00
1.198940e+00
1.125370e+00
1.198940e+00
1.134820e+00
1.208500e+00
1.134820e+00
1.208500e+00
1.143380e+00
1.217120e+00
1.143380e+00
1.217120e+00
1.151080e+00
1.224860e+00
1.151080e+00
1.224860e+00
1.157970e+00
1.231760e+00
1.157970e+00
1.231760e+00
1.164060e+00
1.237860e+00
1.164060e+00
1.237860e+00
1.169380e+00
1.243180e+00
1.169380e+00
1.243180e+00
1.173960e+00
1.247740e+00
1.173960e+00
1.247740e+00
1.177800e+00
1.251570e+00
1.177800e+00
1.251570e+00
1.180920e+00
1.254680e+00
1.180920e+00
1.254680e+00
1.183340e+00
1.257080e+00
1.183340e+00
1.257080e+00
1.185070e+00
1.258800e+00
1.185070e+00
1.258800e+00
1.186100e+00
1.259820e+00
1.186100e+00
1.259820e+00
1.186440e+00
1.260160e+00
</DataArray>
<DataArray type="Float32" Name="V3" format="ascii">
0.000000e+00
0.000000e+00
1.578550e-02
1.295170e-02
1.578550e-02
1.295170e-02
3.147820e-02
2.581620e-02
3.147820e-02
2.581620e-02
4.698550e-02
3.850660e-02
4.698550e-02
3.850660e-02
6.221520e-02
5.093630e-02
6.221520e-02
5.093630e-02
7.707550e-02
6.301910e-02
7.707550e-02
6.301910e-02
9.147560e-02
7.466970e-02
9.147560e-02
7.466970e-02
1.053250e-01
8.580340e-02
1.053250e-01
8.580340e-02
1.185370e-01
9.633760e-02
1.185370e-01
9.633760e-02
1.310220e-01
1.061900e-01
1.310220e-01
1.061900e-01
1.426960e-01
1.152790e-01
1.426960e-01
1.152790e-01
1.534740e-01
1.235270e-01
1.534740e-01
1.235270e-01
1.632750e-01
1.308560e-01
1.632750e-01
1.308560e-01
1.720200e-01
1.371900e-01
1.720200e-01
1.371900e-01
1.796290e-01
1.424570e-01
1.796290e-01
1.424570e-01
1.860270e-01
1.465900e-01
1.860270e-01
1.465900e-01
1.911360e-01
1.495270e-01
1.911360e-01
1.495270e-01
1.948730e-01
1.512190e-01
1.948730e-01
1.512190e-01
1.971410e-01
1.516340e-01
1.971410e-01
1.516340e-01
1.978240e-01
1.507710e-01
1.978240e-01
1.507710e-01
1.967760e-01
1.486570e-01
1.967760e-01
1.486570e-01
1.938690e-01
1.453240e-01
1.938690e-01
1.453240e-01
1.891580e-01
1.407210e-01
1.891580e-01
1.407210e-01
1.832070e-01
1.351890e-01
1.832070e-01
1.351890e-01
1.763800e-01
1.304130e-01
1.763800e-01
1.304130e-01
1.691860e-01
1.259840e-01
1.691860e-01
1.259840e-01
1.619200e-01
1.218020e-01
1.619200e-01
1.218020e-01
1.546860e-01
1.177540e-01
1.546860e-01
1.177540e-01
1.475180e-01
1.137360e-01
1.475180e-01
1.137360e-01
1.404160e-01
1.096600e-01
1.404160e-01
1.096600e-01
1.333650e-01
1.054630e-01
1.333650e-01
1.054630e-01
1.263420e-01
1.010990e-01
1.263420e-01
1.010990e-01
1.193210e-01
9.653760e-02
1.193210e-01
9.653760e-02
1.122840e-01
9.176610e-02
1.122840e-01
9.176610e-02
1.052080e-01
8.677540e-02
1.052080e-01
8.677540e-02
9.808520e-02
8.156980e-02
9.808520e-02
8.156980e-02
9.089940e-02
7.615290e-02
9.089940e-02
7.615290e-02
8.364880e-02
7.053810e-02
8.364880e-02
7.053810e-02
7.632580e-02
6.473490e-02
7.632580e-02
6.473490e-02
6.893410e-02
5.876140e-02
6.893410e-02
5.876140e-02
6.147130e-02
5.262960e-02
6.147130e-02
5.262960e-02
5.394540e-02
4.635980e-02
5.394540e-02
4.635980e-02
4.635720e-02
3.996520e-02
4.635720e-02
3.996520e-02
3.871790e-02
3.346700e-02
3.871790e-02
3.346700e-02
3.103030e-02
2.687860e-02
3.103030e-02
2.687860e-02
2.330750e-02
2.022170e-02
2.330750e-02
2.022170e-02
1.555370e-02
1.350990e-02
1.555370e-02
1.350990e-02
7.782890e-03
6.764800e-03
7.782890e-03
6.764800e-03
0.000000e+00
0.000000e+00
</DataArray>
<DataArray type="Float32" Name="V4" format="ascii">
9.000000e-01
1.000000e+00
9.000000e-01
1.000000e+00
9.000000e-01
1.000000e+00
9.000000e-01
1.000000e+00
9.000000e-01
1.000000e+00
9.000000e-01
1.000000e+00
9.000000e-01
1.000000e+00
9.000000e-01
1.000000e+00
9.000000e-01
1.000000e+00
9.000000e-01
1.000000e+00
9.000000e-01
1.000000e+00
9.000000e-01
1.000000e+00
9.000000e-01
1.000000e+00
9.000000e-01
1.000000e+00
9.000000e-01
1.000000e+00
9.000000e-01
1.000000e+00
9.000000e-01
1.000000e+00
9.000000e-01
1.000000e+00
9.000000e-01
1.000000e+00
9.000000e-01
1.000000e+00
9.000000e-01
1.000000e+00
9.000000e-01
1.000000e+00
9.000000e-01
1.000000e+00
9.000000e-01
1.000000e+00
9.000000e-01
1.000000e+00
9.000000e-01
1.000000e+00
9.000000e-01
1.000000e+00
9.000000e-01
1.000000e+00
9.000000e-01
1.000000e+00
9.000000e-01
1.000000e+00
9.000000e-01
1.000000e+00
9.000000e-01
1.000000e+00
9.000000e-01
1.000000e+00
9.000000e-01
1.000000e+00
9.000000e-01
1.000000e+00
9.000000e-01
1.000000e+00
9.000000e-01
1.000000e+00
9.000000e-01
1.000000e+00
9.000000e-01
1.000000e+00
9.000000e-01
1.000000e+00
9.000000e-01
1.000000e+00
9.000000e-01
1.000000e+00
9.000000e-01
1.000000e+00
9.000000e-01
1.000000e+00
9.000000e-01
1.000000e+00
9.000000e-01
1.000000e+00
9.000000e-01
1.000000e+00
9.000000e-01
1.000000e+00
9.000000e-01
1.000000e+00
9.000000e-01
1.000000e+00
9.000000e-01
1.000000e+00
9.000000e-01
1.000000e+00
9.000000e-01
1.000000e+00
9.000000e-01
1.000000e+00
9.000000e-01
1.000000e+00
9.000000e-01
1.000000e+00
9.000000e-01
1.000000e+00
9.000000e-01
1.000000e+00
9.000000e-01
1.000000e+00
9.000000e-01
1.000000e+00
9.000000e-01
1.000000e+00
9.000000e-01
1.000000e+00
9.000000e-01
1.000000e+00
9.000000e-01
1.000000e+00
9.000000e-01
1.000000e+00
9.000000e-01
1.000000e+00
9.000000e-01
1.000000e+00
9.000000e-01
1.000000e+00
9.000000e-01
1.000000e+00
9.000000e-01
1.000000e+00
9.000000e-01
1.000000e+00
9.000000e-01
1.000000e+00
9.000000e-01
1.000000e+00
9.000000e-01
1.000000e+00
9.000000e-01
1.000000e+00
9.000000e-01
1.000000e+00
9.000000e-01
1.000000e+00
9.000000e-01
1.000000e+00
9.000000e-01
1.000000e+00
9.000000e-01
1.000000e+00
9.000000e-01
1.000000e+00
9.000000e-01
1.000000e+00
9.000000e-01
1.000000e+00
9.000000e-01
1.000000e+00
9.000000e-01
1.000000e+00
9.000000e-01
1.000000e+00
9.000000e-01
1.000000e+00
9.000000e-01
1.000000e+00
9.000000e-01
1.000000e+00
9.000000e-01
1.000000e+00
9.000000e-01
1.000000e+00
9.000000e-01
1.000000e+00
9.000000e-01
1.000000e+00
9.000000e-01
1.000000e+00
9.000000e-01
1.000000e+00
9.000000e-01
1.000000e+00
</DataArray>
<DataArray type="Float32" Name="V5" format="ascii">
0.000000e+00
0.000000e+00
3.272490e-02
3.272490e-02
3.272490e-02
3.272490e-02
6.544980e-02
6.544980e-02
6.544980e-02
6.544980e-02
9.817480e-02
9.817480e-02
9.817480e-02
9.817480e-02
1.309000e-01
1.309000e-01
1.309000e-01
1.309000e-01
1.636250e-01
1.636250e-01
1.636250e-01
1.636250e-01
1.963500e-01
1.963500e-01
1.963500e-01
1.963500e-01
2.290740e-01
2.290740e-01
2.290740e-01
2.290740e-01
2.617990e-01
2.617990e-01
2.617990e-01
2.617990e-01
2.945240e-01
2.945240e-01
2.945240e-01
2.945240e-01
3.272490e-01
3.272490e-01
3.272490e-01
3.272490e-01
3.599740e-01
3.599740e-01
3.599740e-01
3.599740e-01
3.926990e-01
3.926990e-01
3.926990e-01
3.926990e-01
4.254240e-01
4.254240e-01
4.254240e-01
4.254240e-01
4.581490e-01
4.581490e-01
4.581490e-01
4.581490e-01
4.908740e-01
4.908740e-01
4.908740e-01
4.908740e-01
5.235990e-01
5.235990e-01
5.235990e-01
5.235990e-01
5.563240e-01
5.563240e-01
5.563240e-01
5.563240e-01
5.890490e-01
5.890490e-01
5.890490e-01
5.890490e-01
6.217740e-01
6.217740e-01
6.217740e-01
6.217740e-01
6.544980e-01
6.544980e-01
6.544980e-01
6.544980e-01
6.872230e-01
6.872230e-01
6.872230e-01
6.872230e-01
7.199480e-01
7.199480e-01
7.199480e-01
7.199480e-01
7.526730e-01
7.526730e-01
7.526730e-01
7.526730e-01
7.853980e-01
7.853980e-01
7.853980e-01
7.853980e-01
8.181230e-01
8.181230e-01
8.181230e-01
8.181230e-01
8.508480e-01
8.508480e-01
8.508480e-01
8.508480e-01
8.835730e-01
8.835730e-01
8.835730e-01
8.835730e-01
9.162980e-01
9.162980e-01
9.162980e-01
9.162980e-01
9.490230e-01
9.490230e-01
9.490230e-01
9.490230e-01
9.817480e-01
9.817480e-01
9.817480e-01
9.817480e-01
1.014470e+00
1.014470e+00
1.014470e+00
1.014470e+00
1.047200e+00
1.047200e+00
1.047200e+00
1.047200e+00
1.079920e+00
1.079920e+00
1.079920e+00
1.079920e+00
1.112650e+00
1.112650e+00
1.112650e+00
1.112650e+00
1.145370e+00
1.145370e+00
1.145370e+00
1.145370e+00
1.178100e+00
1.178100e+00
1.178100e+00
1.178100e+00
1.210820e+00
1.210820e+00
1.210820e+00
1.210820e+00
1.243550e+00
1.243550e+00
1.243550e+00
1.243550e+00
1.276270e+00
1.276270e+00
1.276270e+00
1.276270e+00
1.309000e+00
1.309000e+00
1.309000e+00
1.309000e+00
1.341720e+00
1.341720e+00
1.341720e+00
1.341720e+00
1.374450e+00
1.374450e+00
1.374450e+00
1.374450e+00
1.407170e+00
1.407170e+00
1.407170e+00
1.407170e+00
1.439900e+00
1.439900e+00
1.439900e+00
1.439900e+00
1.472620e+00
1.472620e+00
1.472620e+00
1.472620e+00
1.505350e+00
1.505350e+00
1.505350e+00
1.505350e+00
1.538070e+00
1.538070e+00
1.538070e+00
1.538070e+00
1.570800e+00
1.570800e+00
</DataArray>
</PointData>
</Piece></UnstructuredGrid>
</VTKFile>
