<?xml version="1.0"?>
<VTKFile type="UnstructuredGrid" version="0.1" byte_order="LittleEndian" compressor="vtkZLibDataCompressor">
<UnstructuredGrid>
<Piece NumberOfPoints="192" NumberOfCells="48">
<Points>
<DataArray type="Float32" NumberOfComponents="3" format="ascii">
0.000000e+00 6.248350e-01 0.000000e+00
0.000000e+00 7.200000e-01 0.000000e+00
3.190680e-02 6.248480e-01 0.000000e+00
3.187210e-02 7.200000e-01 0.000000e+00
3.190680e-02 6.248480e-01 0.000000e+00
3.187210e-02 7.200000e-01 0.000000e+00
6.381160e-02 6.248870e-01 0.000000e+00
6.374220e-02 7.200000e-01 0.000000e+00
6.381160e-02 6.248870e-01 0.000000e+00
6.374220e-02 7.200000e-01 0.000000e+00
9.571280e-02 6.249540e-01 0.000000e+00
9.560860e-02 7.200000e-01 0.000000e+00
9.571280e-02 6.249540e-01 0.000000e+00
9.560860e-02 7.200000e-01 0.000000e+00
1.276090e-01 6.250460e-01 0.000000e+00
1.274690e-01 7.200000e-01 0.000000e+00
1.276090e-01 6.250460e-01 0.000000e+00
1.274690e-01 7.200000e-01 0.000000e+00
1.594970e-01 6.251650e-01 0.000000e+00
1.593220e-01 7.200000e-01 0.000000e+00
1.594970e-01 6.251650e-01 0.000000e+00
1.593220e-01 7.200000e-01 0.000000e+00
1.913760e-01 6.253100e-01 0.000000e+00
1.911650e-01 7.200000e-01 0.000000e+00
1.913760e-01 6.253100e-01 0.000000e+00
1.911650e-01 7.200000e-01 0.000000e+00
2.232430e-01 6.254820e-01 0.000000e+00
2.229950e-01 7.200000e-01 0.000000e+00
2.232430e-01 6.254820e-01 0.000000e+00
2.229950e-01 7.200000e-01 0.000000e+00
2.551000e-01 6.256800e-01 0.000000e+00
2.548120e-01 7.200000e-01 0.000000e+00
2.551000e-01 6.256800e-01 0.000000e+00
2.548120e-01 7.200000e-01 0.000000e+00
2.869440e-01 6.259070e-01 0.000000e+00
2.866130e-01 7.200000e-01 0.000000e+00
2.869440e-01 6.259070e-01 0.000000e+00
2.866130e-01 7.200000e-01 0.000000e+00
3.187750e-01 6.261650e-01 0.000000e+00
3.183990e-01 7.200000e-01 0.000000e+00
3.187750e-01 6.261650e-01 0.000000e+00
3.183990e-01 7.200000e-01 0.000000e+00
3.505900e-01 6.264600e-01 0.000000e+00
3.501740e-01 7.200000e-01 0.000000e+00
3.505900e-01 6.264600e-01 0.000000e+00
3.501740e-01 7.200000e-01 0.000000e+00
3.823820e-01 6.268020e-01 0.000000e+00
3.819500e-01 7.200000e-01 0.000000e+00
3.823820e-01 6.268020e-01 0.000000e+00
3.819500e-01 7.200000e-01 0.000000e+00
4.141340e-01 6.272010e-01 0.000000e+00
4.137580e-01 7.200000e-01 0.000000e+00
4.141340e-01 6.272010e-01 0.000000e+00
4.137580e-01 7.200000e-01 0.000000e+00
4.458010e-01 6.276700e-01 0.000000e+00
4.456500e-01 7.200000e-01 0.000000e+00
4.458010e-01 6.276700e-01 0.000000e+00
4.456500e-01 7.200000e-01 0.000000e+00
4.772920e-01 6.281980e-01 0.000000e+00
4.777170e-01 7.200000e-01 0.000000e+00
4.772920e-01 6.281980e-01 0.000000e+00
4.777170e-01 7.200000e-01 0.000000e+00
5.084450e-01 6.287150e-01 0.000000e+00
5.100800e-01 7.200000e-01 0.000000e+00
5.084450e-01 6.287150e-01 0.000000e+00
5.100800e-01 7.200000e-01 0.000000e+00
5.390240e-01 6.289940e-01 0.000000e+00
5.428530e-01 7.200000e-01 0.000000e+00
5.390240e-01 6.289940e-01 0.000000e+00
5.428530e-01 7.200000e-01 0.000000e+00
5.689000e-01 6.286310e-01 0.000000e+00
5.760180e-01 7.200000e-01 0.000000e+00
5.689000e-01 6.286310e-01 0.000000e+00
5.760180e-01 7.200000e-01 0.000000e+00
5.981350e-01 6.270510e-01 0.000000e+00
6.093130e-01 7.180140e-01 0.000000e+00
5.981350e-01 6.270510e-01 0.000000e+00
6.093130e-01 7.180140e-01 0.000000e+00
6.265460e-01 6.238710e-01 0.000000e+00
6.427630e-01 7.135830e-01 0.000000e+00
6.265460e-01 6.238710e-01 0.000000e+00
6.427630e-01 7.135830e-01 0.000000e+00
6.542710e-01 6.187660e-01 0.000000e+00
6.760890e-01 7.067560e-01 0.000000e+00
6.542710e-01 6.187660e-01 0.000000e+00
6.760890e-01 7.067560e-01 0.000000e+00
6.813430e-01 6.116460e-01 0.000000e+00
7.089690e-01 6.974760e-01 0.000000e+00
6.813430e-01 6.116460e-01 0.000000e+00
7.089690e-01 6.974760e-01 0.000000e+00
7.077330e-01 6.025140e-01 0.000000e+00
7.411140e-01 6.857820e-01 0.000000e+00
7.077330e-01 6.025140e-01 0.000000e+00
7.411140e-01 6.857820e-01 0.000000e+00
7.333840e-01 5.914260e-01 0.000000e+00
7.722950e-01 6.717870e-01 0.000000e+00
7.333840e-01 5.914260e-01 0.000000e+00
7.722950e-01 6.717870e-01 0.000000e+00
7.582330e-01 5.784700e-01 0.000000e+00
8.023380e-01 6.556530e-01 0.000000e+00
7.582330e-01 5.784700e-01 0.000000e+00
8.023380e-01 6.556530e-01 0.000000e+00
7.822220e-01 5.637520e-01 0.000000e+00
8.311260e-01 6.375630e-01 0.000000e+00
7.822220e-01 5.637520e-01 0.000000e+00
8.311260e-01 6.375630e-01 0.000000e+00
8.052970e-01 5.473940e-01 0.000000e+00
8.585850e-01 6.177040e-01 0.000000e+00
8.052970e-01 5.473940e-01 0.000000e+00
8.585850e-01 6.177040e-01 0.000000e+00
8.274130e-01 5.295180e-01 0.000000e+00
8.846740e-01 5.962550e-01 0.000000e+00
8.274130e-01 5.295180e-01 0.000000e+00
8.846740e-01 5.962550e-01 0.000000e+00
8.485360e-01 5.102480e-01 0.000000e+00
9.093780e-01 5.733830e-01 0.000000e+00
8.485360e-01 5.102480e-01 0.000000e+00
9.093780e-01 5.733830e-01 0.000000e+00
8.686390e-01 4.897030e-01 0.000000e+00
9.326970e-01 5.492380e-01 0.000000e+00
8.686390e-01 4.897030e-01 0.000000e+00
9.326970e-01 5.492380e-01 0.000000e+00
8.877000e-01 4.679990e-01 0.000000e+00
9.546420e-01 5.239570e-01 0.000000e+00
8.877000e-01 4.679990e-01 0.000000e+00
9.546420e-01 5.239570e-01 0.000000e+00
9.057100e-01 4.452330e-01 0.000000e+00
9.752370e-01 4.976490e-01 0.000000e+00
9.057100e-01 4.452330e-01 0.000000e+00
9.752370e-01 4.976490e-01 0.000000e+00
9.226480e-01 4.215160e-01 0.000000e+00
9.944890e-01 4.704350e-01 0.000000e+00
9.226480e-01 4.215160e-01 0.000000e+00
9.944890e-01 4.704350e-01 0.000000e+00
9.385170e-01 3.969250e-01 0.000000e+00
1.012430e+00 4.423900e-01 0.000000e+00
9.385170e-01 3.969250e-01 0.000000e+00
1.012430e+00 4.423900e-01 0.000000e+00
9.533020e-01 3.715590e-01 0.000000e+00
1.029070e+00 4.136150e-01 0.000000e+00
9.533020e-01 3.715590e-01 0.000000e+00
1.029070e+00 4.136150e-01 0.000000e+00
9.670080e-01 3.454800e-01 0.000000e+00
1.044430e+00 3.841660e-01 0.000000e+00
9.670080e-01 3.454800e-01 0.000000e+00
1.044430e+00 3.841660e-01 0.000000e+00
9.796230e-01 3.187760e-01 0.000000e+00
1.058520e+00 3.541300e-01 0.000000e+00
9.796230e-01 3.187760e-01 0.000000e+00
1.058520e+00 3.541300e-01 0.000000e+00
9.911530e-01 2.914970e-01 0.000000e+00
1.071360e+00 3.235520e-01 0.000000e+00
9.911530e-01 2.914970e-01 0.000000e+00
1.071360e+00 3.235520e-01 0.000000e+00
1.001590e+00 2.637230e-01 0.000000e+00
1.082960e+00 2.925060e-01 0.000000e+00
1.001590e+00 2.637230e-01 0.000000e+00
1.082960e+00 2.925060e-01 0.000000e+00
1.010930e+00 2.354960e-01 0.000000e+00
1.093320e+00 2.610310e-01 0.000000e+00
1.010930e+00 2.354960e-01 0.000000e+00
1.093320e+00 2.610310e-01 0.000000e+00
1.019180e+00 2.068890e-01 0.000000e+00
1.102440e+00 2.291960e-01 0.000000e+00
1.019180e+00 2.068890e-01 0.000000e+00
1.102440e+00 2.291960e-01 0.000000e+00
1.026330e+00 1.779380e-01 0.000000e+00
1.110350e+00 1.970320e-01 0.000000e+00
1.026330e+00 1.779380e-01 0.000000e+00
1.110350e+00 1.970320e-01 0.000000e+00
1.032390e+00 1.487120e-01 0.000000e+00
1.117030e+00 1.646070e-01 0.000000e+00
1.032390e+00 1.487120e-01 0.000000e+00
1.117030e+00 1.646070e-01 0.000000e+00
1.037340e+00 1.192430e-01 0.000000e+00
1.122490e+00 1.319470e-01 0.000000e+00
1.037340e+00 1.192430e-01 0.000000e+00
1.122490e+00 1.319470e-01 0.000000e+00
1.041200e+00 8.959740e-02 0.000000e+00
1.126740e+00 9.911950e-02 0.000000e+00
1.041200e+00 8.959740e-02 0.000000e+00
1.126740e+00 9.911950e-02 0.000000e+00
1.043950e+00 5.980390e-02 0.000000e+00
1.129780e+00 6.614870e-02 0.000000e+00
1.043950e+00 5.980390e-02 0.000000e+00
1.129780e+00 6.614870e-02 0.000000e+00
1.045610e+00 2.992750e-02 0.000000e+00
1.131600e+00 3.309940e-02 0.000000e+00
1.045610e+00 2.992750e-02 0.000000e+00
1.131600e+00 3.309940e-02 0.000000e+00
1.046160e+00 -3.842750e-06 0.000000e+00
1.132200e+00 -4.158810e-06 0.000000e+00
</DataArray>
</Points>
<Cells>
<DataArray type="Int32" Name="connectivity" format="ascii">
0 1 3 2
4 5 7 6
8 9 11 10
12 13 15 14
16 17 19 18
20 21 23 22
24 25 27 26
28 29 31 30
32 33 35 34
36 37 39 38
40 41 43 42
44 45 47 46
48 49 51 50
52 53 55 54
56 57 59 58
60 61 63 62
64 65 67 66
68 69 71 70
72 73 75 74
76 77 79 78
80 81 83 82
84 85 87 86
88 89 91 90
92 93 95 94
96 97 99 98
100 101 103 102
104 105 107 106
108 109 111 110
112 113 115 114
116 117 119 118
120 121 123 122
124 125 127 126
128 129 131 130
132 133 135 134
136 137 139 138
140 141 143 142
144 145 147 146
148 149 151 150
152 153 155 154
156 157 159 158
160 161 163 162
164 165 167 166
168 169 171 170
172 173 175 174
176 177 179 178
180 181 183 182
184 185 187 186
188 189 191 190
</DataArray>
<DataArray type="Int32" Name="offsets" format="ascii">
4
8
12
16
20
24
28
32
36
40
44
48
52
56
60
64
68
72
76
80
84
88
92
96
100
104
108
112
116
120
124
128
132
136
140
144
148
152
156
160
164
168
172
176
180
184
188
192
</DataArray>
<DataArray type="UInt8" Name="types" format="ascii">
9
9
9
9
9
9
9
9
9
9
9
9
9
9
9
9
9
9
9
9
9
9
9
9
9
9
9
9
9
9
9
9
9
9
9
9
9
9
9
9
9
9
9
9
9
9
9
9
</DataArray>
</Cells>
<PointData>
<DataArray type="Float32" Name="V1" format="ascii">
1.141210e+00
-9.133820e-01
1.142790e+00
-9.117960e-01
1.143020e+00
-9.115770e-01
1.146730e+00
-9.078660e-01
1.147020e+00
-9.076630e-01
1.153540e+00
-9.011440e-01
1.153790e+00
-9.010510e-01
1.163070e+00
-8.917730e-01
1.163320e+00
-8.917710e-01
1.175350e+00
-8.797460e-01
1.175660e+00
-8.798530e-01
1.190430e+00
-8.650800e-01
1.190880e+00
-8.653470e-01
1.208390e+00
-8.478340e-01
1.209090e+00
-8.483580e-01
1.229300e+00
-8.281430e-01
1.230420e+00
-8.290650e-01
1.253210e+00
-8.062680e-01
1.254920e+00
-8.077400e-01
1.280010e+00
-7.826460e-01
1.282360e+00
-7.846900e-01
1.309180e+00
-7.578720e-01
1.311690e+00
-7.600040e-01
1.339220e+00
-7.324690e-01
1.339930e+00
-7.328360e-01
1.366700e+00
-7.060680e-01
1.360280e+00
-6.997120e-01
1.384740e+00
-6.752450e-01
1.359030e+00
-6.510250e-01
1.381390e+00
-6.286570e-01
1.312280e+00
-5.647830e-01
1.339610e+00
-5.374600e-01
1.186110e+00
-3.974450e-01
1.243760e+00
-3.397960e-01
9.418960e-01
-6.131930e-02
1.080550e+00
7.733100e-02
7.087710e-01
4.601650e-01
7.994970e-01
5.508910e-01
5.759800e-01
7.440730e-01
6.257670e-01
7.938610e-01
4.821080e-01
9.254390e-01
5.311360e-01
9.744680e-01
4.404450e-01
1.058300e+00
4.903660e-01
1.108220e+00
4.396840e-01
1.155060e+00
4.887640e-01
1.204140e+00
4.676180e-01
1.223670e+00
5.145120e-01
1.270560e+00
5.144090e-01
1.270640e+00
5.582820e-01
1.314520e+00
5.724560e-01
1.301410e+00
6.128470e-01
1.341810e+00
6.360480e-01
1.320350e+00
6.727730e-01
1.357080e+00
7.010600e-01
1.330910e+00
7.341300e-01
1.363980e+00
7.646400e-01
1.335750e+00
7.941980e-01
1.365300e+00
8.249410e-01
1.336830e+00
8.512090e-01
1.363100e+00
8.808640e-01
1.335620e+00
9.041050e-01
1.358870e+00
9.318660e-01
1.333130e+00
9.523650e-01
1.353630e+00
9.777790e-01
1.330050e+00
9.957990e-01
1.348070e+00
1.018680e+00
1.326830e+00
1.034500e+00
1.342640e+00
1.054840e+00
1.323760e+00
1.068680e+00
1.337590e+00
1.086570e+00
1.320980e+00
1.098650e+00
1.333060e+00
1.114250e+00
1.318570e+00
1.124770e+00
1.329080e+00
1.138260e+00
1.316550e+00
1.147380e+00
1.325670e+00
1.158970e+00
1.314900e+00
1.166830e+00
1.322770e+00
1.176700e+00
1.313600e+00
1.183440e+00
1.320340e+00
1.191770e+00
1.312600e+00
1.197500e+00
1.318330e+00
1.204440e+00
1.311870e+00
1.209240e+00
1.316670e+00
1.214940e+00
1.311360e+00
1.218880e+00
1.315300e+00
1.223470e+00
1.311040e+00
1.226610e+00
1.314190e+00
1.230170e+00
1.310880e+00
1.232560e+00
1.313280e+00
1.235160e+00
1.310870e+00
1.236850e+00
1.312550e+00
1.238560e+00
1.310970e+00
1.239560e+00
1.311970e+00
1.240400e+00
1.311190e+00
1.240730e+00
1.311520e+00
</DataArray>
<DataArray type="Float32" Name="V2" format="ascii">
6.248350e-01
7.200000e-01
6.255570e-01
7.206570e-01
6.255570e-01
7.206570e-01
6.277230e-01
7.226270e-01
6.277230e-01
7.226270e-01
6.313260e-01
7.259040e-01
6.313260e-01
7.259040e-01
6.363550e-01
7.304780e-01
6.363550e-01
7.304780e-01
6.427960e-01
7.363360e-01
6.427960e-01
7.363360e-01
6.506300e-01
7.434600e-01
6.506300e-01
7.434600e-01
6.598350e-01
7.518280e-01
6.598350e-01
7.518280e-01
6.703850e-01
7.614170e-01
6.703850e-01
7.614170e-01
6.822510e-01
7.721960e-01
6.822510e-01
7.721960e-01
6.954020e-01
7.841360e-01
6.954020e-01
7.841360e-01
7.098030e-01
7.972010e-01
7.098030e-01
7.972010e-01
7.254210e-01
8.113590e-01
7.254210e-01
8.113590e-01
7.422110e-01
8.265830e-01
7.422110e-01
8.265830e-01
7.601130e-01
8.428550e-01
7.601130e-01
8.428550e-01
7.790160e-01
8.601780e-01
7.790160e-01
8.601780e-01
7.987060e-01
8.785780e-01
7.987060e-01
8.785780e-01
8.187840e-01
8.980890e-01
8.187840e-01
8.980890e-01
8.387510e-01
9.186770e-01
8.387510e-01
9.186770e-01
8.580970e-01
9.385470e-01
8.580970e-01
9.385470e-01
8.763680e-01
9.574120e-01
8.763680e-01
9.574120e-01
8.933780e-01
9.752360e-01
8.933780e-01
9.752360e-01
9.091000e-01
9.918460e-01
9.091000e-01
9.918460e-01
9.235540e-01
1.007150e+00
9.235540e-01
1.007150e+00
9.367820e-01
1.021120e+00
9.367820e-01
1.021120e+00
9.488450e-01
1.033800e+00
9.488450e-01
1.033800e+00
9.598130e-01
1.045250e+00
9.598130e-01
1.045250e+00
9.697660e-01
1.055560e+00
9.697660e-01
1.055560e+00
9.787810e-01
1.064840e+00
9.787810e-01
1.064840e+00
9.869380e-01
1.073170e+00
9.869380e-01
1.073170e+00
9.943120e-01
1.080650e+00
9.943120e-01
1.080650e+00
1.000970e+00
1.087370e+00
1.000970e+00
1.087370e+00
1.006980e+00
1.093400e+00
1.006980e+00
1.093400e+00
1.012400e+00
1.098820e+00
1.012400e+00
1.098820e+00
1.017290e+00
1.103690e+00
1.017290e+00
1.103690e+00
1.021670e+00
1.108040e+00
1.021670e+00
1.108040e+00
1.025610e+00
1.111940e+00
1.025610e+00
1.111940e+00
1.029120e+00
1.115420e+00
1.029120e+00
1.115420e+00
1.032250e+00
1.118510e+00
1.032250e+00
1.118510e+00
1.035010e+00
1.121230e+00
1.035010e+00
1.121230e+00
1.037440e+00
1.123620e+00
1.037440e+00
1.123620e+00
1.039540e+00
1.125690e+00
1.039540e+00
1.125690e+00
1.041330e+00
1.127450e+00
1.041330e+00
1.127450e+00
1.042820e+00
1.128920e+00
1.042820e+00
1.128920e+00
1.044030e+00
1.130110e+00
1.044030e+00
1.130110e+00
1.044970e+00
1.131030e+00
1.044970e+00
1.131030e+00
1.045630e+00
1.131680e+00
1.045630e+00
1.131680e+00
1.046020e+00
1.132070e+00
1.046020e+00
1.132070e+00
1.046160e+00
1.132200e+00
</DataArray>
<DataArray type="Float32" Name="V3" format="ascii">
0.000000e+00
0.000000e+00
1.144520e-02
8.297270e-03
1.144520e-02
8.297270e-03
2.280550e-02
1.651550e-02
2.280550e-02
1.651550e-02
3.399580e-02
2.457590e-02
3.399580e-02
2.457590e-02
4.493170e-02
3.239980e-02
4.493170e-02
3.239980e-02
5.552950e-02
3.990920e-02
5.552950e-02
3.990920e-02
6.570620e-02
4.702660e-02
6.570620e-02
4.702660e-02
7.537960e-02
5.367510e-02
7.537960e-02
5.367510e-02
8.446990e-02
5.977970e-02
8.446990e-02
5.977970e-02
9.289740e-02
6.526660e-02
9.289740e-02
6.526660e-02
1.005830e-01
7.006500e-02
1.005830e-01
7.006500e-02
1.074490e-01
7.410960e-02
1.074490e-01
7.410960e-02
1.134090e-01
7.734410e-02
1.134090e-01
7.734410e-02
1.183690e-01
7.972810e-02
1.183690e-01
7.972810e-02
1.222150e-01
8.124390e-02
1.222150e-01
8.124390e-02
1.248030e-01
8.190330e-02
1.248030e-01
8.190330e-02
1.259680e-01
8.174170e-02
1.259680e-01
8.174170e-02
1.255880e-01
8.078310e-02
1.255880e-01
8.078310e-02
1.237740e-01
7.893100e-02
1.237740e-01
7.893100e-02
1.209490e-01
7.705060e-02
1.209490e-01
7.705060e-02
1.172840e-01
7.553680e-02
1.172840e-01
7.553680e-02
1.132180e-01
7.426280e-02
1.132180e-01
7.426280e-02
1.089750e-01
7.315300e-02
1.089750e-01
7.315300e-02
1.046750e-01
7.211790e-02
1.046750e-01
7.211790e-02
1.003790e-01
7.107010e-02
1.003790e-01
7.107010e-02
9.611840e-02
6.993470e-02
9.611840e-02
6.993470e-02
9.190350e-02
6.865430e-02
9.190350e-02
6.865430e-02
8.773360e-02
6.718880e-02
8.773360e-02
6.718880e-02
8.360220e-02
6.551430e-02
8.360220e-02
6.551430e-02
7.949970e-02
6.361960e-02
7.949970e-02
6.361960e-02
7.541630e-02
6.150390e-02
7.541630e-02
6.150390e-02
7.134290e-02
5.917350e-02
7.134290e-02
5.917350e-02
6.726970e-02
5.663880e-02
6.726970e-02
5.663880e-02
6.319200e-02
5.391510e-02
6.319200e-02
5.391510e-02
5.910180e-02
5.101620e-02
5.910180e-02
5.101620e-02
5.499740e-02
4.795990e-02
5.499740e-02
4.795990e-02
5.087350e-02
4.476010e-02
5.087350e-02
4.476010e-02
4.673060e-02
4.143400e-02
4.673060e-02
4.143400e-02
4.256550e-02
3.799420e-02
4.256550e-02
3.799420e-02
3.838050e-02
3.445640e-02
3.838050e-02
3.445640e-02
3.417380e-02
3.083100e-02
3.417380e-02
3.083100e-02
2.994900e-02
2.713210e-02
2.994900e-02
2.713210e-02
2.570520e-02
2.336850e-02
2.570520e-02
2.336850e-02
2.144690e-02
1.955290e-02
2.144690e-02
1.955290e-02
1.717380e-02
1.569270e-02
1.717380e-02
1.569270e-02
1.289090e-02
1.179960e-02
1.289090e-02
1.179960e-02
8.598230e-03
7.879870e-03
8.598230e-03
7.879870e-03
4.301200e-03
3.944690e-03
4.301200e-03
3.944690e-03
0.000000e+00
0.000000e+00
</DataArray>
<DataArray type="Float32" Name="V4" format="ascii">
9.000000e-01
1.000000e+00
9.000000e-01
1.000000e+00
9.000000e-01
1.000000e+00
9.000000e-01
1.000000e+00
9.000000e-01
1.000000e+00
9.000000e-01
1.000000e+00
9.000000e-01
1.000000e+00
9.000000e-01
1.000000e+00
9.000000e-01
1.000000e+00
9.000000e-01
1.000000e+00
9.000000e-01
1.000000e+00
9.000000e-01
1.000000e+00
9.000000e-01
1.000000e+00
9.000000e-01
1.000000e+00
9.000000e-01
1.000000e+00
9.000000e-01
1.000000e+00
9.000000e-01
1.000000e+00
9.000000e-01
1.000000e+00
9.000000e-01
1.000000e+00
9.000000e-01
1.000000e+00
9.000000e-01
1.000000e+00
9.000000e-01
1.000000e+00
9.000000e-01
1.000000e+00
9.000000e-01
1.000000e+00
9.000000e-01
1.000000e+00
9.000000e-01
1.000000e+00
9.000000e-01
1.000000e+00
9.000000e-01
1.000000e+00
9.000000e-01
1.000000e+00
9.000000e-01
1.000000e+00
9.000000e-01
1.000000e+00
9.000000e-01
1.000000e+00
9.000000e-01
1.000000e+00
9.000000e-01
1.000000e+00
9.000000e-01
1.000000e+00
9.000000e-01
1.000000e+00
9.000000e-01
1.000000e+00
9.000000e-01
1.000000e+00
9.000000e-01
1.000000e+00
9.000000e-01
1.000000e+00
9.000000e-01
1.000000e+00
9.000000e-01
1.000000e+00
9.000000e-01
1.000000e+00
9.000000e-01
1.000000e+00
9.000000e-01
1.000000e+00
9.000000e-01
1.000000e+00
9.000000e-01
1.000000e+00
9.000000e-01
1.000000e+00
9.000000e-01
1.000000e+00
9.000000e-01
1.000000e+00
9.000000e-01
1.000000e+00
9.000000e-01
1.000000e+00
9.000000e-01
1.000000e+00
9.000000e-01
1.000000e+00
9.000000e-01
1.000000e+00
9.000000e-01
1.000000e+00
9.000000e-01
1.000000e+00
9.000000e-01
1.000000e+00
9.000000e-01
1.000000e+00
9.000000e-01
1.000000e+00
9.000000e-01
1.000000e+00
9.000000e-01
1.000000e+00
9.000000e-01
1.000000e+00
9.000000e-01
1.000000e+00
9.000000e-01
1.000000e+00
9.000000e-01
1.000000e+00
9.000000e-01
1.000000e+00
9.000000e-01
1.000000e+00
9.000000e-01
1.000000e+00
9.000000e-01
1.000000e+00
9.000000e-01
1.000000e+00
9.000000e-01
1.000000e+00
9.000000e-01
1.000000e+00
9.000000e-01
1.000000e+00
9.000000e-01
1.000000e+00
9.000000e-01
1.000000e+00
9.000000e-01
1.000000e+00
9.000000e-01
1.000000e+00
9.000000e-01
1.000000e+00
9.000000e-01
1.000000e+00
9.000000e-01
1.000000e+00
9.000000e-01
1.000000e+00
9.000000e-01
1.000000e+00
9.000000e-01
1.000000e+00
9.000000e-01
1.000000e+00
9.000000e-01
1.000000e+00
9.000000e-01
1.000000e+00
9.000000e-01
1.000000e+00
9.000000e-01
1.000000e+00
9.000000e-01
1.000000e+00
9.000000e-01
1.000000e+00
9.000000e-01
1.000000e+00
9.000000e-01
1.000000e+00
9.000000e-01
1.000000e+00
9.000000e-01
1.000000e+00
9.000000e-01
1.000000e+00
</DataArray>
<DataArray type="Float32" Name="V5" format="ascii">
0.000000e+00
0.000000e+00
3.272490e-02
3.272490e-02
3.272490e-02
3.272490e-02
6.544980e-02
6.544980e-02
6.544980e-02
6.544980e-02
9.817480e-02
9.817480e-02
9.817480e-02
9.817480e-02
1.309000e-01
1.309000e-01
1.309000e-01
1.309000e-01
1.636250e-01
1.636250e-01
1.636250e-01
1.636250e-01
1.963500e-01
1.963500e-01
1.963500e-01
1.963500e-01
2.290740e-01
2.290740e-01
2.290740e-01
2.290740e-01
2.617990e-01
2.617990e-01
2.617990e-01
2.617990e-01
2.945240e-01
2.945240e-01
2.945240e-01
2.945240e-01
3.272490e-01
3.272490e-01
3.272490e-01
3.272490e-01
3.599740e-01
3.599740e-01
3.599740e-01
3.599740e-01
3.926990e-01
3.926990e-01
3.926990e-01
3.926990e-01
4.254240e-01
4.254240e-01
4.254240e-01
4.254240e-01
4.581490e-01
4.581490e-01
4.581490e-01
4.581490e-01
4.908740e-01
4.908740e-01
4.908740e-01
4.908740e-01
5.235990e-01
5.235990e-01
5.235990e-01
5.235990e-01
5.563240e-01
5.563240e-01
5.563240e-01
5.563240e-01
5.890490e-01
5.890490e-01
5.890490e-01
5.890490e-01
6.217740e-01
6.217740e-01
6.217740e-01
6.217740e-01
6.544980e-01
6.544980e-01
6.544980e-01
6.544980e-01
6.872230e-01
6.872230e-01
6.872230e-01
6.872230e-01
7.199480e-01
7.199480e-01
7.199480e-01
7.199480e-01
7.526730e-01
7.526730e-01
7.526730e-01
7.526730e-01
7.853980e-01
7.853980e-01
7.853980e-01
7.853980e-01
8.181230e-01
8.181230e-01
8.181230e-01
8.181230e-01
8.508480e-01
8.508480e-01
8.508480e-01
8.508480e-01
8.835730e-01
8.835730e-01
8.835730e-01
8.835730e-01
9.162980e-01
9.162980e-01
9.162980e-01
9.162980e-01
9.490230e-01
9.490230e-01
9.490230e-01
9.490230e-01
9.817480e-01
9.817480e-01
9.817480e-01
9.817480e-01
1.014470e+00
1.014470e+00
1.014470e+00
1.014470e+00
1.047200e+00
1.047200e+00
1.047200e+00
1.047200e+00
1.079920e+00
1.079920e+00
1.079920e+00
1.079920e+00
1.112650e+00
1.112650e+00
1.112650e+00
1.112650e+00
1.145370e+00
1.145370e+00
1.145370e+00
1.145370e+00
1.178100e+00
1.178100e+00
1.178100e+00
1.178100e+00
1.210820e+00
1.210820e+00
1.210820e+00
1.210820e+00
1.243550e+00
1.243550e+00
1.243550e+00
1.243550e+00
1.276270e+00
1.276270e+00
1.276270e+00
1.276270e+00
1.309000e+00
1.309000e+00
1.309000e+00
1.309000e+00
1.341720e+00
1.341720e+00
1.341720e+00
1.341720e+00
1.374450e+00
1.374450e+00
1.374450e+00
1.374450e+00
1.407170e+00
1.407170e+00
1.407170e+00
1.407170e+00
1.439900e+00
1.439900e+00
1.439900e+00
1.439900e+00
1.472620e+00
1.472620e+00
1.472620e+00
1.472620e+00
1.505350e+00
1.505350e+00
1.505350e+00
1.505350e+00
1.538070e+00
1.538070e+00
1.538070e+00
1.538070e+00
1.570800e+00
1.570800e+00
</DataArray>
</PointData>
</Piece></UnstructuredGrid>
</VTKFile>
