<?xml version="1.0"?>
<VTKFile type="UnstructuredGrid" version="0.1" byte_order="LittleEndian" compressor="vtkZLibDataCompressor">
<UnstructuredGrid>
<Piece NumberOfPoints="192" NumberOfCells="48">
<Points>
<DataArray type="Float32" NumberOfComponents="3" format="ascii">
0.000000e+00 3.582540e-01 0.000000e+00
0.000000e+00 3.925000e-01 0.000000e+00
5.315220e-02 3.582590e-01 0.000000e+00
5.314650e-02 3.925000e-01 0.000000e+00
5.315220e-02 3.582590e-01 0.000000e+00
5.314650e-02 3.925000e-01 0.000000e+00
1.063020e-01 3.582750e-01 0.000000e+00
1.062910e-01 3.925000e-01 0.000000e+00
1.063020e-01 3.582750e-01 0.000000e+00
1.062910e-01 3.925000e-01 0.000000e+00
1.594480e-01 3.583000e-01 0.000000e+00
1.594310e-01 3.925000e-01 0.000000e+00
1.594480e-01 3.583000e-01 0.000000e+00
1.594310e-01 3.925000e-01 0.000000e+00
2.125880e-01 3.583360e-01 0.000000e+00
2.125650e-01 3.925000e-01 0.000000e+00
2.125880e-01 3.583360e-01 0.000000e+00
2.125650e-01 3.925000e-01 0.000000e+00
2.657180e-01 3.583830e-01 0.000000e+00
2.656890e-01 3.925000e-01 0.000000e+00
2.657180e-01 3.583830e-01 0.000000e+00
2.656890e-01 3.925000e-01 0.000000e+00
3.188370e-01 3.584390e-01 0.000000e+00
3.188030e-01 3.925000e-01 0.000000e+00
3.188370e-01 3.584390e-01 0.000000e+00
3.188030e-01 3.925000e-01 0.000000e+00
3.719400e-01 3.585060e-01 0.000000e+00
3.719010e-01 3.925000e-01 0.000000e+00
3.719400e-01 3.585060e-01 0.000000e+00
3.719010e-01 3.925000e-01 0.000000e+00
4.250290e-01 3.585820e-01 0.000000e+00
4.249840e-01 3.925000e-01 0.000000e+00
4.250290e-01 3.585820e-01 0.000000e+00
4.249840e-01 3.925000e-01 0.000000e+00
4.780990e-01 3.586680e-01 0.000000e+00
4.780490e-01 3.925000e-01 0.000000e+00
4.780990e-01 3.586680e-01 0.000000e+00
4.780490e-01 3.925000e-01 0.000000e+00
5.311480e-01 3.587640e-01 0.000000e+00
5.310920e-01 3.925000e-01 0.000000e+00
5.311480e-01 3.587640e-01 0.000000e+00
5.310920e-01 3.925000e-01 0.000000e+00
5.841720e-01 3.588700e-01 0.000000e+00
5.841100e-01 3.925000e-01 0.000000e+00
5.841720e-01 3.588700e-01 0.000000e+00
5.841100e-01 3.925000e-01 0.000000e+00
6.371690e-01 3.589850e-01 0.000000e+00
6.371020e-01 3.925000e-01 0.000000e+00
6.371690e-01 3.589850e-01 0.000000e+00
6.371020e-01 3.925000e-01 0.000000e+00
6.901350e-01 3.591090e-01 0.000000e+00
6.900620e-01 3.925000e-01 0.000000e+00
6.901350e-01 3.591090e-01 0.000000e+00
6.900620e-01 3.925000e-01 0.000000e+00
7.430670e-01 3.592430e-01 0.000000e+00
7.429890e-01 3.925000e-01 0.000000e+00
7.430670e-01 3.592430e-01 0.000000e+00
7.429890e-01 3.925000e-01 0.000000e+00
7.959610e-01 3.593850e-01 0.000000e+00
7.958790e-01 3.925000e-01 0.000000e+00
7.959610e-01 3.593850e-01 0.000000e+00
7.958790e-01 3.925000e-01 0.000000e+00
8.488150e-01 3.595360e-01 0.000000e+00
8.487270e-01 3.925000e-01 0.000000e+00
8.488150e-01 3.595360e-01 0.000000e+00
8.487270e-01 3.925000e-01 0.000000e+00
9.016230e-01 3.596950e-01 0.000000e+00
9.015310e-01 3.925000e-01 0.000000e+00
9.016230e-01 3.596950e-01 0.000000e+00
9.015310e-01 3.925000e-01 0.000000e+00
9.543820e-01 3.598630e-01 0.000000e+00
9.542850e-01 3.925000e-01 0.000000e+00
9.543820e-01 3.598630e-01 0.000000e+00
9.542850e-01 3.925000e-01 0.000000e+00
1.007090e+00 3.600390e-01 0.000000e+00
1.006990e+00 3.925000e-01 0.000000e+00
1.007090e+00 3.600390e-01 0.000000e+00
1.006990e+00 3.925000e-01 0.000000e+00
1.059730e+00 3.602220e-01 0.000000e+00
1.059630e+00 3.925000e-01 0.000000e+00
1.059730e+00 3.602220e-01 0.000000e+00
1.059630e+00 3.925000e-01 0.000000e+00
1.112320e+00 3.604130e-01 0.000000e+00
1.112200e+00 3.925000e-01 0.000000e+00
1.112320e+00 3.604130e-01 0.000000e+00
1.112200e+00 3.925000e-01 0.000000e+00
1.164830e+00 3.606110e-01 0.000000e+00
1.164710e+00 3.925000e-01 0.000000e+00
1.164830e+00 3.606110e-01 0.000000e+00
1.164710e+00 3.925000e-01 0.000000e+00
1.217270e+00 3.608160e-01 0.000000e+00
1.217150e+00 3.925000e-01 0.000000e+00
1.217270e+00 3.608160e-01 0.000000e+00
1.217150e+00 3.925000e-01 0.000000e+00
1.269630e+00 3.610280e-01 0.000000e+00
1.269510e+00 3.925000e-01 0.000000e+00
1.269630e+00 3.610280e-01 0.000000e+00
1.269510e+00 3.925000e-01 0.000000e+00
1.321900e+00 3.612460e-01 0.000000e+00
1.321780e+00 3.925000e-01 0.000000e+00
1.321900e+00 3.612460e-01 0.000000e+00
1.321780e+00 3.925000e-01 0.000000e+00
1.374080e+00 3.614700e-01 0.000000e+00
1.373950e+00 3.925000e-01 0.000000e+00
1.374080e+00 3.614700e-01 0.000000e+00
1.373950e+00 3.925000e-01 0.000000e+00
1.426160e+00 3.617000e-01 0.000000e+00
1.426030e+00 3.925000e-01 0.000000e+00
1.426160e+00 3.617000e-01 0.000000e+00
1.426030e+00 3.925000e-01 0.000000e+00
1.478140e+00 3.619360e-01 0.000000e+00
1.478000e+00 3.925000e-01 0.000000e+00
1.478140e+00 3.619360e-01 0.000000e+00
1.478000e+00 3.925000e-01 0.000000e+00
1.529990e+00 3.621770e-01 0.000000e+00
1.529850e+00 3.925000e-01 0.000000e+00
1.529990e+00 3.621770e-01 0.000000e+00
1.529850e+00 3.925000e-01 0.000000e+00
1.581730e+00 3.624230e-01 0.000000e+00
1.581590e+00 3.925000e-01 0.000000e+00
1.581730e+00 3.624230e-01 0.000000e+00
1.581590e+00 3.925000e-01 0.000000e+00
1.633320e+00 3.626730e-01 0.000000e+00
1.633190e+00 3.925000e-01 0.000000e+00
1.633320e+00 3.626730e-01 0.000000e+00
1.633190e+00 3.925000e-01 0.000000e+00
1.684760e+00 3.629290e-01 0.000000e+00
1.684690e+00 3.925000e-01 0.000000e+00
1.684760e+00 3.629290e-01 0.000000e+00
1.684690e+00 3.925000e-01 0.000000e+00
1.736000e+00 3.631900e-01 0.000000e+00
1.736080e+00 3.925000e-01 0.000000e+00
1.736000e+00 3.631900e-01 0.000000e+00
1.736080e+00 3.925000e-01 0.000000e+00
1.786960e+00 3.634570e-01 0.000000e+00
1.787470e+00 3.925000e-01 0.000000e+00
1.786960e+00 3.634570e-01 0.000000e+00
1.787470e+00 3.925000e-01 0.000000e+00
1.837370e+00 3.637100e-01 0.000000e+00
1.839050e+00 3.925000e-01 0.000000e+00
1.837370e+00 3.637100e-01 0.000000e+00
1.839050e+00 3.925000e-01 0.000000e+00
1.886700e+00 3.635730e-01 0.000000e+00
1.890790e+00 3.925000e-01 0.000000e+00
1.886700e+00 3.635730e-01 0.000000e+00
1.890790e+00 3.925000e-01 0.000000e+00
1.934520e+00 3.601010e-01 0.000000e+00
1.940470e+00 3.890070e-01 0.000000e+00
1.934520e+00 3.601010e-01 0.000000e+00
1.940470e+00 3.890070e-01 0.000000e+00
1.980270e+00 3.500730e-01 0.000000e+00
1.989170e+00 3.778410e-01 0.000000e+00
1.980270e+00 3.500730e-01 0.000000e+00
1.989170e+00 3.778410e-01 0.000000e+00
2.023710e+00 3.336970e-01 0.000000e+00
2.035950e+00 3.598590e-01 0.000000e+00
2.023710e+00 3.336970e-01 0.000000e+00
2.035950e+00 3.598590e-01 0.000000e+00
2.064280e+00 3.115030e-01 0.000000e+00
2.079740e+00 3.356080e-01 0.000000e+00
2.064280e+00 3.115030e-01 0.000000e+00
2.079740e+00 3.356080e-01 0.000000e+00
2.101390e+00 2.840870e-01 0.000000e+00
2.119740e+00 3.057770e-01 0.000000e+00
2.101390e+00 2.840870e-01 0.000000e+00
2.119740e+00 3.057770e-01 0.000000e+00
2.134540e+00 2.520580e-01 0.000000e+00
2.155390e+00 2.710560e-01 0.000000e+00
2.134540e+00 2.520580e-01 0.000000e+00
2.155390e+00 2.710560e-01 0.000000e+00
2.163250e+00 2.160840e-01 0.000000e+00
2.186210e+00 2.321830e-01 0.000000e+00
2.163250e+00 2.160840e-01 0.000000e+00
2.186210e+00 2.321830e-01 0.000000e+00
2.187200e+00 1.768040e-01 0.000000e+00
2.211870e+00 1.898460e-01 0.000000e+00
2.187200e+00 1.768040e-01 0.000000e+00
2.211870e+00 1.898460e-01 0.000000e+00
2.206100e+00 1.349040e-01 0.000000e+00
2.232080e+00 1.447770e-01 0.000000e+00
2.206100e+00 1.349040e-01 0.000000e+00
2.232080e+00 1.447770e-01 0.000000e+00
2.219740e+00 9.102160e-02 0.000000e+00
2.246650e+00 9.764480e-02 0.000000e+00
2.219740e+00 9.102160e-02 0.000000e+00
2.246650e+00 9.764480e-02 0.000000e+00
2.227980e+00 4.584110e-02 0.000000e+00
2.255450e+00 4.916530e-02 0.000000e+00
2.227980e+00 4.584110e-02 0.000000e+00
2.255450e+00 4.916530e-02 0.000000e+00
2.230730e+00 -8.193940e-06 0.000000e+00
2.258390e+00 -8.295520e-06 0.000000e+00
</DataArray>
</Points>
<Cells>
<DataArray type="Int32" Name="connectivity" format="ascii">
0 1 3 2
4 5 7 6
8 9 11 10
12 13 15 14
16 17 19 18
20 21 23 22
24 25 27 26
28 29 31 30
32 33 35 34
36 37 39 38
40 41 43 42
44 45 47 46
48 49 51 50
52 53 55 54
56 57 59 58
60 61 63 62
64 65 67 66
68 69 71 70
72 73 75 74
76 77 79 78
80 81 83 82
84 85 87 86
88 89 91 90
92 93 95 94
96 97 99 98
100 101 103 102
104 105 107 106
108 109 111 110
112 113 115 114
116 117 119 118
120 121 123 122
124 125 127 126
128 129 131 130
132 133 135 134
136 137 139 138
140 141 143 142
144 145 147 146
148 149 151 150
152 153 155 154
156 157 159 158
160 161 163 162
164 165 167 166
168 169 171 170
172 173 175 174
176 177 179 178
180 181 183 182
184 185 187 186
188 189 191 190
</DataArray>
<DataArray type="Int32" Name="offsets" format="ascii">
4
8
12
16
20
24
28
32
36
40
44
48
52
56
60
64
68
72
76
80
84
88
92
96
100
104
108
112
116
120
124
128
132
136
140
144
148
152
156
160
164
168
172
176
180
184
188
192
</DataArray>
<DataArray type="UInt8" Name="types" format="ascii">
9
9
9
9
9
9
9
9
9
9
9
9
9
9
9
9
9
9
9
9
9
9
9
9
9
9
9
9
9
9
9
9
9
9
9
9
9
9
9
9
9
9
9
9
9
9
9
9
</DataArray>
</Cells>
<PointData>
<DataArray type="Float32" Name="V1" format="ascii">
1.743990e+01
1.083660e+01
1.744550e+01
1.084220e+01
1.744770e+01
1.084080e+01
1.746110e+01
1.085420e+01
1.746530e+01
1.085150e+01
1.748820e+01
1.087440e+01
1.749410e+01
1.086990e+01
1.752650e+01
1.090230e+01
1.753430e+01
1.089620e+01
1.757610e+01
1.093800e+01
1.758570e+01
1.093020e+01
1.763700e+01
1.098150e+01
1.764840e+01
1.097210e+01
1.770930e+01
1.103290e+01
1.772260e+01
1.102180e+01
1.779310e+01
1.109230e+01
1.780830e+01
1.107950e+01
1.788850e+01
1.115960e+01
1.790570e+01
1.114510e+01
1.799560e+01
1.123510e+01
1.801480e+01
1.121890e+01
1.811460e+01
1.131870e+01
1.813570e+01
1.130080e+01
1.824550e+01
1.141060e+01
1.826870e+01
1.139090e+01
1.838870e+01
1.151090e+01
1.841390e+01
1.148950e+01
1.854410e+01
1.161970e+01
1.857150e+01
1.159650e+01
1.871210e+01
1.173710e+01
1.874160e+01
1.171210e+01
1.889290e+01
1.186330e+01
1.892450e+01
1.183650e+01
1.908660e+01
1.199850e+01
1.912050e+01
1.196970e+01
1.929350e+01
1.214270e+01
1.932960e+01
1.211200e+01
1.951380e+01
1.229620e+01
1.955230e+01
1.226360e+01
1.974790e+01
1.245920e+01
1.978880e+01
1.242450e+01
1.999610e+01
1.263180e+01
2.003930e+01
1.259510e+01
2.025860e+01
1.281430e+01
2.030430e+01
1.277550e+01
2.053570e+01
1.300690e+01
2.058400e+01
1.296600e+01
2.082790e+01
1.320990e+01
2.087880e+01
1.316670e+01
2.113540e+01
1.342340e+01
2.118900e+01
1.337800e+01
2.145880e+01
1.364780e+01
2.151500e+01
1.360020e+01
2.179830e+01
1.388340e+01
2.185730e+01
1.383350e+01
2.215440e+01
1.413060e+01
2.221590e+01
1.407850e+01
2.252730e+01
1.438990e+01
2.259080e+01
1.433620e+01
2.291680e+01
1.466220e+01
2.298060e+01
1.460830e+01
2.332180e+01
1.494960e+01
2.338030e+01
1.490030e+01
2.373760e+01
1.525750e+01
2.377470e+01
1.522650e+01
2.414920e+01
1.560100e+01
2.411790e+01
1.562840e+01
2.451310e+01
1.602370e+01
2.428200e+01
1.622210e+01
2.470430e+01
1.664440e+01
2.397440e+01
1.728910e+01
2.438730e+01
1.770200e+01
2.312340e+01
1.873630e+01
2.346010e+01
1.907300e+01
2.276020e+01
1.971460e+01
2.319900e+01
2.015340e+01
2.298330e+01
2.033370e+01
2.340190e+01
2.075230e+01
2.337320e+01
2.077630e+01
2.376870e+01
2.117180e+01
2.380560e+01
2.114070e+01
2.417150e+01
2.150660e+01
2.422790e+01
2.145890e+01
2.455770e+01
2.178870e+01
2.461600e+01
2.173960e+01
2.490400e+01
2.202760e+01
2.495680e+01
2.198310e+01
2.519840e+01
2.222470e+01
2.524260e+01
2.218750e+01
2.543420e+01
2.237910e+01
2.546820e+01
2.235040e+01
2.560700e+01
2.248910e+01
2.563000e+01
2.246970e+01
2.571400e+01
2.255370e+01
2.572570e+01
2.254390e+01
2.575380e+01
2.257200e+01
</DataArray>
<DataArray type="Float32" Name="V2" format="ascii">
3.582540e-01
3.925000e-01
3.598060e-01
3.940290e-01
3.598060e-01
3.940290e-01
3.644600e-01
3.986110e-01
3.644600e-01
3.986110e-01
3.722040e-01
4.062370e-01
3.722040e-01
4.062370e-01
3.830190e-01
4.168870e-01
3.830190e-01
4.168870e-01
3.968800e-01
4.305370e-01
3.968800e-01
4.305370e-01
4.137540e-01
4.471540e-01
4.137540e-01
4.471540e-01
4.335990e-01
4.666960e-01
4.335990e-01
4.666960e-01
4.563690e-01
4.891200e-01
4.563690e-01
4.891200e-01
4.820090e-01
5.143690e-01
4.820090e-01
5.143690e-01
5.104570e-01
5.423840e-01
5.104570e-01
5.423840e-01
5.416430e-01
5.730960e-01
5.416430e-01
5.730960e-01
5.754930e-01
6.064310e-01
5.754930e-01
6.064310e-01
6.119230e-01
6.423080e-01
6.119230e-01
6.423080e-01
6.508450e-01
6.806380e-01
6.508450e-01
6.806380e-01
6.921630e-01
7.213290e-01
6.921630e-01
7.213290e-01
7.357750e-01
7.642790e-01
7.357750e-01
7.642790e-01
7.815720e-01
8.093810e-01
7.815720e-01
8.093810e-01
8.294420e-01
8.565240e-01
8.294420e-01
8.565240e-01
8.792620e-01
9.055890e-01
8.792620e-01
9.055890e-01
9.309070e-01
9.564500e-01
9.309070e-01
9.564500e-01
9.842480e-01
1.008980e+00
9.842480e-01
1.008980e+00
1.039150e+00
1.063050e+00
1.039150e+00
1.063050e+00
1.095460e+00
1.118510e+00
1.095460e+00
1.118510e+00
1.153050e+00
1.175220e+00
1.153050e+00
1.175220e+00
1.211760e+00
1.233030e+00
1.211760e+00
1.233030e+00
1.271430e+00
1.291790e+00
1.271430e+00
1.291790e+00
1.331900e+00
1.351340e+00
1.331900e+00
1.351340e+00
1.393020e+00
1.411510e+00
1.393020e+00
1.411510e+00
1.454610e+00
1.472160e+00
1.454610e+00
1.472160e+00
1.516510e+00
1.533110e+00
1.516510e+00
1.533110e+00
1.578530e+00
1.594180e+00
1.578530e+00
1.594180e+00
1.640510e+00
1.655240e+00
1.640510e+00
1.655240e+00
1.702220e+00
1.716110e+00
1.702220e+00
1.716110e+00
1.763430e+00
1.776740e+00
1.763430e+00
1.776740e+00
1.823700e+00
1.837110e+00
1.823700e+00
1.837110e+00
1.882210e+00
1.897070e+00
1.882210e+00
1.897070e+00
1.937370e+00
1.953130e+00
1.937370e+00
1.953130e+00
1.987710e+00
2.005060e+00
1.987710e+00
2.005060e+00
2.033430e+00
2.052740e+00
2.033430e+00
2.052740e+00
2.074570e+00
2.095740e+00
2.074570e+00
2.095740e+00
2.111010e+00
2.133800e+00
2.111010e+00
2.133800e+00
2.142700e+00
2.166860e+00
2.142700e+00
2.166860e+00
2.169560e+00
2.194840e+00
2.169560e+00
2.194840e+00
2.191570e+00
2.217730e+00
2.191570e+00
2.217730e+00
2.208700e+00
2.235520e+00
2.208700e+00
2.235520e+00
2.220940e+00
2.248230e+00
2.220940e+00
2.248230e+00
2.228280e+00
2.255850e+00
2.228280e+00
2.255850e+00
2.230730e+00
2.258390e+00
</DataArray>
<DataArray type="Float32" Name="V3" format="ascii">
0.000000e+00
0.000000e+00
4.140180e-02
4.027580e-02
4.140180e-02
4.027580e-02
8.264250e-02
8.039260e-02
8.264250e-02
8.039260e-02
1.235610e-01
1.201920e-01
1.235610e-01
1.201920e-01
1.639970e-01
1.595150e-01
1.639970e-01
1.595150e-01
2.037900e-01
1.982040e-01
2.037900e-01
1.982040e-01
2.427820e-01
2.361040e-01
2.427820e-01
2.361040e-01
2.808160e-01
2.730580e-01
2.808160e-01
2.730580e-01
3.177390e-01
3.089170e-01
3.177390e-01
3.089170e-01
3.533970e-01
3.435270e-01
3.533970e-01
3.435270e-01
3.876390e-01
3.767420e-01
3.876390e-01
3.767420e-01
4.203180e-01
4.084140e-01
4.203180e-01
4.084140e-01
4.512890e-01
4.384020e-01
4.512890e-01
4.384020e-01
4.804120e-01
4.665650e-01
4.804120e-01
4.665650e-01
5.075470e-01
4.927680e-01
5.075470e-01
4.927680e-01
5.325620e-01
5.168790e-01
5.325620e-01
5.168790e-01
5.553270e-01
5.387690e-01
5.553270e-01
5.387690e-01
5.757160e-01
5.583150e-01
5.757160e-01
5.583150e-01
5.936100e-01
5.753970e-01
5.936100e-01
5.753970e-01
6.088930e-01
5.899020e-01
6.088930e-01
5.899020e-01
6.214530e-01
6.017190e-01
6.214530e-01
6.017190e-01
6.311890e-01
6.107470e-01
6.311890e-01
6.107470e-01
6.379990e-01
6.168860e-01
6.379990e-01
6.168860e-01
6.417910e-01
6.200450e-01
6.417910e-01
6.200450e-01
6.424790e-01
6.201380e-01
6.424790e-01
6.201380e-01
6.399830e-01
6.170850e-01
6.399830e-01
6.170850e-01
6.342290e-01
6.108130e-01
6.342290e-01
6.108130e-01
6.251510e-01
6.012570e-01
6.251510e-01
6.012570e-01
6.126900e-01
5.883580e-01
6.126900e-01
5.883580e-01
5.967930e-01
5.720640e-01
5.967930e-01
5.720640e-01
5.774160e-01
5.523320e-01
5.774160e-01
5.523320e-01
5.545220e-01
5.291300e-01
5.545220e-01
5.291300e-01
5.280710e-01
5.024260e-01
5.280710e-01
5.024260e-01
4.980420e-01
4.722310e-01
4.980420e-01
4.722310e-01
4.643720e-01
4.385520e-01
4.643720e-01
4.385520e-01
4.270090e-01
4.014780e-01
4.270090e-01
4.014780e-01
3.861040e-01
3.609460e-01
3.861040e-01
3.609460e-01
3.444180e-01
3.194620e-01
3.444180e-01
3.194620e-01
3.050370e-01
2.816040e-01
3.050370e-01
2.816040e-01
2.681260e-01
2.466450e-01
2.681260e-01
2.466450e-01
2.333800e-01
2.140970e-01
2.333800e-01
2.140970e-01
2.005140e-01
1.835580e-01
2.005140e-01
1.835580e-01
1.692060e-01
1.546410e-01
1.692060e-01
1.546410e-01
1.391900e-01
1.270470e-01
1.391900e-01
1.270470e-01
1.101880e-01
1.004780e-01
1.101880e-01
1.004780e-01
8.198380e-02
7.470530e-02
8.198380e-02
7.470530e-02
5.434320e-02
4.949450e-02
5.434320e-02
4.949450e-02
2.708390e-02
2.466040e-02
2.708390e-02
2.466040e-02
0.000000e+00
0.000000e+00
</DataArray>
<DataArray type="Float32" Name="V4" format="ascii">
9.000000e-01
1.000000e+00
9.000000e-01
1.000000e+00
9.000000e-01
1.000000e+00
9.000000e-01
1.000000e+00
9.000000e-01
1.000000e+00
9.000000e-01
1.000000e+00
9.000000e-01
1.000000e+00
9.000000e-01
1.000000e+00
9.000000e-01
1.000000e+00
9.000000e-01
1.000000e+00
9.000000e-01
1.000000e+00
9.000000e-01
1.000000e+00
9.000000e-01
1.000000e+00
9.000000e-01
1.000000e+00
9.000000e-01
1.000000e+00
9.000000e-01
1.000000e+00
9.000000e-01
1.000000e+00
9.000000e-01
1.000000e+00
9.000000e-01
1.000000e+00
9.000000e-01
1.000000e+00
9.000000e-01
1.000000e+00
9.000000e-01
1.000000e+00
9.000000e-01
1.000000e+00
9.000000e-01
1.000000e+00
9.000000e-01
1.000000e+00
9.000000e-01
1.000000e+00
9.000000e-01
1.000000e+00
9.000000e-01
1.000000e+00
9.000000e-01
1.000000e+00
9.000000e-01
1.000000e+00
9.000000e-01
1.000000e+00
9.000000e-01
1.000000e+00
9.000000e-01
1.000000e+00
9.000000e-01
1.000000e+00
9.000000e-01
1.000000e+00
9.000000e-01
1.000000e+00
9.000000e-01
1.000000e+00
9.000000e-01
1.000000e+00
9.000000e-01
1.000000e+00
9.000000e-01
1.000000e+00
9.000000e-01
1.000000e+00
9.000000e-01
1.000000e+00
9.000000e-01
1.000000e+00
9.000000e-01
1.000000e+00
9.000000e-01
1.000000e+00
9.000000e-01
1.000000e+00
9.000000e-01
1.000000e+00
9.000000e-01
1.000000e+00
9.000000e-01
1.000000e+00
9.000000e-01
1.000000e+00
9.000000e-01
1.000000e+00
9.000000e-01
1.000000e+00
9.000000e-01
1.000000e+00
9.000000e-01
1.000000e+00
9.000000e-01
1.000000e+00
9.000000e-01
1.000000e+00
9.000000e-01
1.000000e+00
9.000000e-01
1.000000e+00
9.000000e-01
1.000000e+00
9.000000e-01
1.000000e+00
9.000000e-01
1.000000e+00
9.000000e-01
1.000000e+00
9.000000e-01
1.000000e+00
9.000000e-01
1.000000e+00
9.000000e-01
1.000000e+00
9.000000e-01
1.000000e+00
9.000000e-01
1.000000e+00
9.000000e-01
1.000000e+00
9.000000e-01
1.000000e+00
9.000000e-01
1.000000e+00
9.000000e-01
1.000000e+00
9.000000e-01
1.000000e+00
9.000000e-01
1.000000e+00
9.000000e-01
1.000000e+00
9.000000e-01
1.000000e+00
9.000000e-01
1.000000e+00
9.000000e-01
1.000000e+00
9.000000e-01
1.000000e+00
9.000000e-01
1.000000e+00
9.000000e-01
1.000000e+00
9.000000e-01
1.000000e+00
9.000000e-01
1.000000e+00
9.000000e-01
1.000000e+00
9.000000e-01
1.000000e+00
9.000000e-01
1.000000e+00
9.000000e-01
1.000000e+00
9.000000e-01
1.000000e+00
9.000000e-01
1.000000e+00
9.000000e-01
1.000000e+00
9.000000e-01
1.000000e+00
9.000000e-01
1.000000e+00
9.000000e-01
1.000000e+00
9.000000e-01
1.000000e+00
9.000000e-01
1.000000e+00
9.000000e-01
1.000000e+00
9.000000e-01
1.000000e+00
</DataArray>
<DataArray type="Float32" Name="V5" format="ascii">
0.000000e+00
0.000000e+00
3.272490e-02
3.272490e-02
3.272490e-02
3.272490e-02
6.544980e-02
6.544980e-02
6.544980e-02
6.544980e-02
9.817480e-02
9.817480e-02
9.817480e-02
9.817480e-02
1.309000e-01
1.309000e-01
1.309000e-01
1.309000e-01
1.636250e-01
1.636250e-01
1.636250e-01
1.636250e-01
1.963500e-01
1.963500e-01
1.963500e-01
1.963500e-01
2.290740e-01
2.290740e-01
2.290740e-01
2.290740e-01
2.617990e-01
2.617990e-01
2.617990e-01
2.617990e-01
2.945240e-01
2.945240e-01
2.945240e-01
2.945240e-01
3.272490e-01
3.272490e-01
3.272490e-01
3.272490e-01
3.599740e-01
3.599740e-01
3.599740e-01
3.599740e-01
3.926990e-01
3.926990e-01
3.926990e-01
3.926990e-01
4.254240e-01
4.254240e-01
4.254240e-01
4.254240e-01
4.581490e-01
4.581490e-01
4.581490e-01
4.581490e-01
4.908740e-01
4.908740e-01
4.908740e-01
4.908740e-01
5.235990e-01
5.235990e-01
5.235990e-01
5.235990e-01
5.563240e-01
5.563240e-01
5.563240e-01
5.563240e-01
5.890490e-01
5.890490e-01
5.890490e-01
5.890490e-01
6.217740e-01
6.217740e-01
6.217740e-01
6.217740e-01
6.544980e-01
6.544980e-01
6.544980e-01
6.544980e-01
6.872230e-01
6.872230e-01
6.872230e-01
6.872230e-01
7.199480e-01
7.199480e-01
7.199480e-01
7.199480e-01
7.526730e-01
7.526730e-01
7.526730e-01
7.526730e-01
7.853980e-01
7.853980e-01
7.853980e-01
7.853980e-01
8.181230e-01
8.181230e-01
8.181230e-01
8.181230e-01
8.508480e-01
8.508480e-01
8.508480e-01
8.508480e-01
8.835730e-01
8.835730e-01
8.835730e-01
8.835730e-01
9.162980e-01
9.162980e-01
9.162980e-01
9.162980e-01
9.490230e-01
9.490230e-01
9.490230e-01
9.490230e-01
9.817480e-01
9.817480e-01
9.817480e-01
9.817480e-01
1.014470e+00
1.014470e+00
1.014470e+00
1.014470e+00
1.047200e+00
1.047200e+00
1.047200e+00
1.047200e+00
1.079920e+00
1.079920e+00
1.079920e+00
1.079920e+00
1.112650e+00
1.112650e+00
1.112650e+00
1.112650e+00
1.145370e+00
1.145370e+00
1.145370e+00
1.145370e+00
1.178100e+00
1.178100e+00
1.178100e+00
1.178100e+00
1.210820e+00
1.210820e+00
1.210820e+00
1.210820e+00
1.243550e+00
1.243550e+00
1.243550e+00
1.243550e+00
1.276270e+00
1.276270e+00
1.276270e+00
1.276270e+00
1.309000e+00
1.309000e+00
1.309000e+00
1.309000e+00
1.341720e+00
1.341720e+00
1.341720e+00
1.341720e+00
1.374450e+00
1.374450e+00
1.374450e+00
1.374450e+00
1.407170e+00
1.407170e+00
1.407170e+00
1.407170e+00
1.439900e+00
1.439900e+00
1.439900e+00
1.439900e+00
1.472620e+00
1.472620e+00
1.472620e+00
1.472620e+00
1.505350e+00
1.505350e+00
1.505350e+00
1.505350e+00
1.538070e+00
1.538070e+00
1.538070e+00
1.538070e+00
1.570800e+00
1.570800e+00
</DataArray>
</PointData>
</Piece></UnstructuredGrid>
</VTKFile>
