<?xml version="1.0"?>
<VTKFile type="UnstructuredGrid" version="0.1" byte_order="LittleEndian" compressor="vtkZLibDataCompressor">
<UnstructuredGrid>
<Piece NumberOfPoints="192" NumberOfCells="48">
<Points>
<DataArray type="Float32" NumberOfComponents="3" format="ascii">
0.000000e+00 6.809360e-01 0.000000e+00
0.000000e+00 7.800000e-01 0.000000e+00
3.127490e-02 6.809490e-01 0.000000e+00
3.123730e-02 7.800000e-01 0.000000e+00
3.127490e-02 6.809490e-01 0.000000e+00
3.123730e-02 7.800000e-01 0.000000e+00
6.254790e-02 6.809890e-01 0.000000e+00
6.247230e-02 7.800000e-01 0.000000e+00
6.254790e-02 6.809890e-01 0.000000e+00
6.247230e-02 7.800000e-01 0.000000e+00
9.381710e-02 6.810550e-01 0.000000e+00
9.370260e-02 7.800000e-01 0.000000e+00
9.381710e-02 6.810550e-01 0.000000e+00
9.370260e-02 7.800000e-01 0.000000e+00
1.250810e-01 6.811470e-01 0.000000e+00
1.249260e-01 7.800000e-01 0.000000e+00
1.250810e-01 6.811470e-01 0.000000e+00
1.249260e-01 7.800000e-01 0.000000e+00
1.563390e-01 6.812670e-01 0.000000e+00
1.561400e-01 7.800000e-01 0.000000e+00
1.563390e-01 6.812670e-01 0.000000e+00
1.561400e-01 7.800000e-01 0.000000e+00
1.875880e-01 6.814160e-01 0.000000e+00
1.873420e-01 7.800000e-01 0.000000e+00
1.875880e-01 6.814160e-01 0.000000e+00
1.873420e-01 7.800000e-01 0.000000e+00
2.188300e-01 6.815960e-01 0.000000e+00
2.185330e-01 7.800000e-01 0.000000e+00
2.188300e-01 6.815960e-01 0.000000e+00
2.185330e-01 7.800000e-01 0.000000e+00
2.500600e-01 6.818130e-01 0.000000e+00
2.497170e-01 7.800000e-01 0.000000e+00
2.500600e-01 6.818130e-01 0.000000e+00
2.497170e-01 7.800000e-01 0.000000e+00
2.812740e-01 6.820770e-01 0.000000e+00
2.809040e-01 7.800000e-01 0.000000e+00
2.812740e-01 6.820770e-01 0.000000e+00
2.809040e-01 7.800000e-01 0.000000e+00
3.124550e-01 6.824000e-01 0.000000e+00
3.121200e-01 7.800000e-01 0.000000e+00
3.124550e-01 6.824000e-01 0.000000e+00
3.121200e-01 7.800000e-01 0.000000e+00
3.435660e-01 6.827950e-01 0.000000e+00
3.434110e-01 7.800000e-01 0.000000e+00
3.435660e-01 6.827950e-01 0.000000e+00
3.434110e-01 7.800000e-01 0.000000e+00
3.745310e-01 6.832600e-01 0.000000e+00
3.748560e-01 7.800000e-01 0.000000e+00
3.745310e-01 6.832600e-01 0.000000e+00
3.748560e-01 7.800000e-01 0.000000e+00
4.052150e-01 6.837460e-01 0.000000e+00
4.065630e-01 7.800000e-01 0.000000e+00
4.052150e-01 6.837460e-01 0.000000e+00
4.065630e-01 7.800000e-01 0.000000e+00
4.354180e-01 6.840840e-01 0.000000e+00
4.386470e-01 7.800000e-01 0.000000e+00
4.354180e-01 6.840840e-01 0.000000e+00
4.386470e-01 7.800000e-01 0.000000e+00
4.649800e-01 6.839220e-01 0.000000e+00
4.711530e-01 7.800000e-01 0.000000e+00
4.649800e-01 6.839220e-01 0.000000e+00
4.711530e-01 7.800000e-01 0.000000e+00
4.939820e-01 6.828220e-01 0.000000e+00
5.038950e-01 7.788160e-01 0.000000e+00
4.939820e-01 6.828220e-01 0.000000e+00
5.038950e-01 7.788160e-01 0.000000e+00
5.222370e-01 6.803630e-01 0.000000e+00
5.368540e-01 7.753520e-01 0.000000e+00
5.222370e-01 6.803630e-01 0.000000e+00
5.368540e-01 7.753520e-01 0.000000e+00
5.498350e-01 6.762180e-01 0.000000e+00
5.698410e-01 7.697590e-01 0.000000e+00
5.498350e-01 6.762180e-01 0.000000e+00
5.698410e-01 7.697590e-01 0.000000e+00
5.768280e-01 6.702360e-01 0.000000e+00
6.025680e-01 7.619140e-01 0.000000e+00
5.768280e-01 6.702360e-01 0.000000e+00
6.025680e-01 7.619140e-01 0.000000e+00
6.032000e-01 6.623770e-01 0.000000e+00
6.347630e-01 7.517850e-01 0.000000e+00
6.032000e-01 6.623770e-01 0.000000e+00
6.347630e-01 7.517850e-01 0.000000e+00
6.289090e-01 6.526540e-01 0.000000e+00
6.661880e-01 7.394270e-01 0.000000e+00
6.289090e-01 6.526540e-01 0.000000e+00
6.661880e-01 7.394270e-01 0.000000e+00
6.539020e-01 6.411220e-01 0.000000e+00
6.966530e-01 7.249550e-01 0.000000e+00
6.539020e-01 6.411220e-01 0.000000e+00
6.966530e-01 7.249550e-01 0.000000e+00
6.781270e-01 6.278610e-01 0.000000e+00
7.260180e-01 7.085180e-01 0.000000e+00
6.781270e-01 6.278610e-01 0.000000e+00
7.260180e-01 7.085180e-01 0.000000e+00
7.015340e-01 6.129710e-01 0.000000e+00
7.541860e-01 6.902850e-01 0.000000e+00
7.015340e-01 6.129710e-01 0.000000e+00
7.541860e-01 6.902850e-01 0.000000e+00
7.240840e-01 5.965610e-01 0.000000e+00
7.810990e-01 6.704260e-01 0.000000e+00
7.240840e-01 5.965610e-01 0.000000e+00
7.810990e-01 6.704260e-01 0.000000e+00
7.457460e-01 5.787430e-01 0.000000e+00
8.067290e-01 6.491060e-01 0.000000e+00
7.457460e-01 5.787430e-01 0.000000e+00
8.067290e-01 6.491060e-01 0.000000e+00
7.664940e-01 5.596300e-01 0.000000e+00
8.310700e-01 6.264770e-01 0.000000e+00
7.664940e-01 5.596300e-01 0.000000e+00
8.310700e-01 6.264770e-01 0.000000e+00
7.863120e-01 5.393300e-01 0.000000e+00
8.541310e-01 6.026770e-01 0.000000e+00
7.863120e-01 5.393300e-01 0.000000e+00
8.541310e-01 6.026770e-01 0.000000e+00
8.051890e-01 5.179480e-01 0.000000e+00
8.759290e-01 5.778290e-01 0.000000e+00
8.051890e-01 5.179480e-01 0.000000e+00
8.759290e-01 5.778290e-01 0.000000e+00
8.231160e-01 4.955790e-01 0.000000e+00
8.964890e-01 5.520400e-01 0.000000e+00
8.231160e-01 4.955790e-01 0.000000e+00
8.964890e-01 5.520400e-01 0.000000e+00
8.400890e-01 4.723140e-01 0.000000e+00
9.158350e-01 5.254060e-01 0.000000e+00
8.400890e-01 4.723140e-01 0.000000e+00
9.158350e-01 5.254060e-01 0.000000e+00
8.561050e-01 4.482340e-01 0.000000e+00
9.339920e-01 4.980080e-01 0.000000e+00
8.561050e-01 4.482340e-01 0.000000e+00
9.339920e-01 4.980080e-01 0.000000e+00
8.711640e-01 4.234150e-01 0.000000e+00
9.509820e-01 4.699200e-01 0.000000e+00
8.711640e-01 4.234150e-01 0.000000e+00
9.509820e-01 4.699200e-01 0.000000e+00
8.852630e-01 3.979270e-01 0.000000e+00
9.668250e-01 4.412070e-01 0.000000e+00
8.852630e-01 3.979270e-01 0.000000e+00
9.668250e-01 4.412070e-01 0.000000e+00
8.984020e-01 3.718330e-01 0.000000e+00
9.815370e-01 4.119260e-01 0.000000e+00
8.984020e-01 3.718330e-01 0.000000e+00
9.815370e-01 4.119260e-01 0.000000e+00
9.105800e-01 3.451930e-01 0.000000e+00
9.951330e-01 3.821300e-01 0.000000e+00
9.105800e-01 3.451930e-01 0.000000e+00
9.951330e-01 3.821300e-01 0.000000e+00
9.217950e-01 3.180600e-01 0.000000e+00
1.007620e+00 3.518670e-01 0.000000e+00
9.217950e-01 3.180600e-01 0.000000e+00
1.007620e+00 3.518670e-01 0.000000e+00
9.320450e-01 2.904860e-01 0.000000e+00
1.019020e+00 3.211840e-01 0.000000e+00
9.320450e-01 2.904860e-01 0.000000e+00
1.019020e+00 3.211840e-01 0.000000e+00
9.413300e-01 2.625190e-01 0.000000e+00
1.029320e+00 2.901230e-01 0.000000e+00
9.413300e-01 2.625190e-01 0.000000e+00
1.029320e+00 2.901230e-01 0.000000e+00
9.496460e-01 2.342020e-01 0.000000e+00
1.038530e+00 2.587240e-01 0.000000e+00
9.496460e-01 2.342020e-01 0.000000e+00
1.038530e+00 2.587240e-01 0.000000e+00
9.569900e-01 2.055800e-01 0.000000e+00
1.046660e+00 2.270280e-01 0.000000e+00
9.569900e-01 2.055800e-01 0.000000e+00
1.046660e+00 2.270280e-01 0.000000e+00
9.633620e-01 1.766940e-01 0.000000e+00
1.053700e+00 1.950730e-01 0.000000e+00
9.633620e-01 1.766940e-01 0.000000e+00
1.053700e+00 1.950730e-01 0.000000e+00
9.687580e-01 1.475830e-01 0.000000e+00
1.059660e+00 1.628970e-01 0.000000e+00
9.687580e-01 1.475830e-01 0.000000e+00
1.059660e+00 1.628970e-01 0.000000e+00
9.731760e-01 1.182870e-01 0.000000e+00
1.064540e+00 1.305370e-01 0.000000e+00
9.731760e-01 1.182870e-01 0.000000e+00
1.064540e+00 1.305370e-01 0.000000e+00
9.766150e-01 8.884370e-02 0.000000e+00
1.068330e+00 9.803100e-02 0.000000e+00
9.766150e-01 8.884370e-02 0.000000e+00
1.068330e+00 9.803100e-02 0.000000e+00
9.790720e-01 5.929010e-02 0.000000e+00
1.071050e+00 6.541490e-02 0.000000e+00
9.790720e-01 5.929010e-02 0.000000e+00
1.071050e+00 6.541490e-02 0.000000e+00
9.805470e-01 2.966330e-02 0.000000e+00
1.072670e+00 3.272570e-02 0.000000e+00
9.805470e-01 2.966330e-02 0.000000e+00
1.072670e+00 3.272570e-02 0.000000e+00
9.810380e-01 4.803740e-12 0.000000e+00
1.073210e+00 5.255090e-12 0.000000e+00
</DataArray>
</Points>
<Cells>
<DataArray type="Int32" Name="connectivity" format="ascii">
0 1 3 2
4 5 7 6
8 9 11 10
12 13 15 14
16 17 19 18
20 21 23 22
24 25 27 26
28 29 31 30
32 33 35 34
36 37 39 38
40 41 43 42
44 45 47 46
48 49 51 50
52 53 55 54
56 57 59 58
60 61 63 62
64 65 67 66
68 69 71 70
72 73 75 74
76 77 79 78
80 81 83 82
84 85 87 86
88 89 91 90
92 93 95 94
96 97 99 98
100 101 103 102
104 105 107 106
108 109 111 110
112 113 115 114
116 117 119 118
120 121 123 122
124 125 127 126
128 129 131 130
132 133 135 134
136 137 139 138
140 141 143 142
144 145 147 146
148 149 151 150
152 153 155 154
156 157 159 158
160 161 163 162
164 165 167 166
168 169 171 170
172 173 175 174
176 177 179 178
180 181 183 182
184 185 187 186
188 189 191 190
</DataArray>
<DataArray type="Int32" Name="offsets" format="ascii">
4
8
12
16
20
24
28
32
36
40
44
48
52
56
60
64
68
72
76
80
84
88
92
96
100
104
108
112
116
120
124
128
132
136
140
144
148
152
156
160
164
168
172
176
180
184
188
192
</DataArray>
<DataArray type="UInt8" Name="types" format="ascii">
9
9
9
9
9
9
9
9
9
9
9
9
9
9
9
9
9
9
9
9
9
9
9
9
9
9
9
9
9
9
9
9
9
9
9
9
9
9
9
9
9
9
9
9
9
9
9
9
</DataArray>
</Cells>
<PointData>
<DataArray type="Float32" Name="V1" format="ascii">
9.151840e-01
-1.138760e+00
9.167330e-01
-1.137210e+00
9.169590e-01
-1.136990e+00
9.205790e-01
-1.133370e+00
9.209090e-01
-1.133210e+00
9.272690e-01
-1.126850e+00
9.276390e-01
-1.126870e+00
9.366670e-01
-1.117840e+00
9.372320e-01
-1.118130e+00
9.488570e-01
-1.106500e+00
9.498020e-01
-1.107180e+00
9.638780e-01
-1.093110e+00
9.654030e-01
-1.094350e+00
9.816230e-01
-1.078130e+00
9.838270e-01
-1.079990e+00
1.001590e+00
-1.062220e+00
1.004140e+00
-1.064350e+00
1.022410e+00
-1.046080e+00
1.023770e+00
-1.047010e+00
1.041020e+00
-1.029760e+00
1.036900e+00
-1.025490e+00
1.051390e+00
-1.011000e+00
1.032090e+00
-9.925470e-01
1.043280e+00
-9.813540e-01
9.894930e-01
-9.311770e-01
1.002040e+00
-9.186340e-01
8.807410e-01
-8.071480e-01
9.135050e-01
-7.743840e-01
6.743570e-01
-5.541670e-01
7.701310e-01
-4.583930e-01
4.251270e-01
-9.910460e-02
5.204770e-01
-3.754840e-03
2.755310e-01
2.103610e-01
3.155860e-01
2.504160e-01
1.524360e-01
4.003120e-01
1.907290e-01
4.386050e-01
7.581650e-02
5.450560e-01
1.154740e-01
5.847130e-01
4.084160e-02
6.537690e-01
8.030690e-02
6.932340e-01
3.803550e-02
7.322710e-01
7.589720e-02
7.701320e-01
5.882010e-02
7.858750e-01
9.412240e-02
8.211770e-01
9.588040e-02
8.195300e-01
1.280370e-01
8.516860e-01
1.431730e-01
8.376850e-01
1.718930e-01
8.664050e-01
1.958950e-01
8.442030e-01
2.211190e-01
8.694270e-01
2.503910e-01
8.423350e-01
2.722280e-01
8.641710e-01
3.040160e-01
8.347280e-01
3.226860e-01
8.533980e-01
3.549640e-01
8.234750e-01
3.707540e-01
8.392640e-01
4.021070e-01
8.101740e-01
4.153320e-01
8.233990e-01
4.448320e-01
7.960080e-01
4.558120e-01
8.069880e-01
4.829060e-01
7.818130e-01
4.919500e-01
7.908570e-01
5.163650e-01
7.681570e-01
5.237590e-01
7.755510e-01
5.454210e-01
7.553980e-01
5.514230e-01
7.613990e-01
5.703980e-01
7.437370e-01
5.752360e-01
7.485750e-01
5.916760e-01
7.332660e-01
5.955480e-01
7.371380e-01
6.096560e-01
7.239960e-01
6.127330e-01
7.270730e-01
6.247360e-01
7.158890e-01
6.271630e-01
7.183170e-01
6.372930e-01
7.088750e-01
6.391940e-01
7.107760e-01
6.476770e-01
7.028680e-01
6.491530e-01
7.043440e-01
6.561980e-01
6.977750e-01
6.573350e-01
6.989110e-01
6.631340e-01
6.935040e-01
6.639990e-01
6.943690e-01
6.687200e-01
6.899670e-01
6.693720e-01
6.906180e-01
6.731590e-01
6.870860e-01
6.736430e-01
6.875690e-01
6.766190e-01
6.847930e-01
6.769700e-01
6.851440e-01
6.792340e-01
6.830310e-01
6.794810e-01
6.832780e-01
6.811120e-01
6.817560e-01
6.812740e-01
6.819180e-01
6.823300e-01
6.809320e-01
6.824220e-01
6.810240e-01
6.829400e-01
6.805400e-01
6.829700e-01
6.805700e-01
</DataArray>
<DataArray type="Float32" Name="V2" format="ascii">
6.809360e-01
7.800000e-01
6.816080e-01
7.806040e-01
6.816080e-01
7.806040e-01
6.836210e-01
7.824160e-01
6.836210e-01
7.824160e-01
6.869710e-01
7.854290e-01
6.869710e-01
7.854290e-01
6.916460e-01
7.896330e-01
6.916460e-01
7.896330e-01
6.976340e-01
7.950160e-01
6.976340e-01
7.950160e-01
7.049190e-01
8.015610e-01
7.049190e-01
8.015610e-01
7.134810e-01
8.092480e-01
7.134810e-01
8.092480e-01
7.233010e-01
8.180540e-01
7.233010e-01
8.180540e-01
7.343570e-01
8.279560e-01
7.343570e-01
8.279560e-01
7.466210e-01
8.389330e-01
7.466210e-01
8.389330e-01
7.600530e-01
8.509730e-01
7.600530e-01
8.509730e-01
7.745770e-01
8.640770e-01
7.745770e-01
8.640770e-01
7.900350e-01
8.782650e-01
7.900350e-01
8.782650e-01
8.061170e-01
8.935690e-01
8.061170e-01
8.935690e-01
8.223550e-01
9.099980e-01
8.223550e-01
9.099980e-01
8.383320e-01
9.264210e-01
8.383320e-01
9.264210e-01
8.535430e-01
9.419260e-01
8.535430e-01
9.419260e-01
8.677270e-01
9.566180e-01
8.677270e-01
9.566180e-01
8.807890e-01
9.703020e-01
8.807890e-01
9.703020e-01
8.927040e-01
9.828510e-01
8.927040e-01
9.828510e-01
9.034840e-01
9.942100e-01
9.034840e-01
9.942100e-01
9.131690e-01
1.004390e+00
9.131690e-01
1.004390e+00
9.218160e-01
1.013420e+00
9.218160e-01
1.013420e+00
9.294960e-01
1.021400e+00
9.294960e-01
1.021400e+00
9.362870e-01
1.028390e+00
9.362870e-01
1.028390e+00
9.422730e-01
1.034520e+00
9.422730e-01
1.034520e+00
9.475330e-01
1.039860e+00
9.475330e-01
1.039860e+00
9.521470e-01
1.044510e+00
9.521470e-01
1.044510e+00
9.561880e-01
1.048570e+00
9.561880e-01
1.048570e+00
9.597250e-01
1.052100e+00
9.597250e-01
1.052100e+00
9.628190e-01
1.055180e+00
9.628190e-01
1.055180e+00
9.655260e-01
1.057860e+00
9.655260e-01
1.057860e+00
9.678940e-01
1.060210e+00
9.678940e-01
1.060210e+00
9.699670e-01
1.062260e+00
9.699670e-01
1.062260e+00
9.717800e-01
1.064050e+00
9.717800e-01
1.064050e+00
9.733660e-01
1.065620e+00
9.733660e-01
1.065620e+00
9.747500e-01
1.066990e+00
9.747500e-01
1.066990e+00
9.759560e-01
1.068180e+00
9.759560e-01
1.068180e+00
9.770020e-01
1.069210e+00
9.770020e-01
1.069210e+00
9.779030e-01
1.070100e+00
9.779030e-01
1.070100e+00
9.786730e-01
1.070870e+00
9.786730e-01
1.070870e+00
9.793230e-01
1.071510e+00
9.793230e-01
1.071510e+00
9.798590e-01
1.072040e+00
9.798590e-01
1.072040e+00
9.802900e-01
1.072470e+00
9.802900e-01
1.072470e+00
9.806200e-01
1.072800e+00
9.806200e-01
1.072800e+00
9.808530e-01
1.073030e+00
9.808530e-01
1.073030e+00
9.809920e-01
1.073170e+00
9.809920e-01
1.073170e+00
9.810380e-01
1.073210e+00
</DataArray>
<DataArray type="Float32" Name="V3" format="ascii">
0.000000e+00
0.000000e+00
8.978090e-03
5.699720e-03
8.978090e-03
5.699720e-03
1.787520e-02
1.132410e-02
1.787520e-02
1.132410e-02
2.661040e-02
1.679800e-02
2.661040e-02
1.679800e-02
3.510350e-02
2.204660e-02
3.510350e-02
2.204660e-02
4.327510e-02
2.699560e-02
4.327510e-02
2.699560e-02
5.104640e-02
3.157200e-02
5.104640e-02
3.157200e-02
5.833890e-02
3.570530e-02
5.833890e-02
3.570530e-02
6.507320e-02
3.932930e-02
6.507320e-02
3.932930e-02
7.116560e-02
4.238650e-02
7.116560e-02
4.238650e-02
7.652220e-02
4.483270e-02
7.652220e-02
4.483270e-02
8.103050e-02
4.664530e-02
8.103050e-02
4.664530e-02
8.454920e-02
4.782840e-02
8.454920e-02
4.782840e-02
8.690880e-02
4.841160e-02
8.690880e-02
4.841160e-02
8.795240e-02
4.842530e-02
8.795240e-02
4.842530e-02
8.767780e-02
4.783000e-02
8.767780e-02
4.783000e-02
8.638970e-02
4.697770e-02
8.638970e-02
4.697770e-02
8.420650e-02
4.645920e-02
8.420650e-02
4.645920e-02
8.148460e-02
4.614970e-02
8.148460e-02
4.614970e-02
7.847480e-02
4.599790e-02
7.847480e-02
4.599790e-02
7.532120e-02
4.593400e-02
7.532120e-02
4.593400e-02
7.211390e-02
4.588280e-02
7.211390e-02
4.588280e-02
6.890890e-02
4.577570e-02
6.890890e-02
4.577570e-02
6.573930e-02
4.555670e-02
6.573930e-02
4.555670e-02
6.262360e-02
4.518460e-02
6.262360e-02
4.518460e-02
5.957040e-02
4.463340e-02
5.957040e-02
4.463340e-02
5.658260e-02
4.389000e-02
5.658260e-02
4.389000e-02
5.365910e-02
4.295230e-02
5.365910e-02
4.295230e-02
5.079710e-02
4.182620e-02
5.079710e-02
4.182620e-02
4.799220e-02
4.052310e-02
4.799220e-02
4.052310e-02
4.523960e-02
3.905800e-02
4.523960e-02
3.905800e-02
4.253430e-02
3.744740e-02
4.253430e-02
3.744740e-02
3.987110e-02
3.570820e-02
3.987110e-02
3.570820e-02
3.724520e-02
3.385700e-02
3.724520e-02
3.385700e-02
3.465210e-02
3.190930e-02
3.465210e-02
3.190930e-02
3.208730e-02
2.987910e-02
3.208730e-02
2.987910e-02
2.954700e-02
2.777920e-02
2.954700e-02
2.777920e-02
2.702770e-02
2.562060e-02
2.702770e-02
2.562060e-02
2.452590e-02
2.341290e-02
2.452590e-02
2.341290e-02
2.203910e-02
2.116460e-02
2.203910e-02
2.116460e-02
1.956450e-02
1.888280e-02
1.956450e-02
1.888280e-02
1.710010e-02
1.657360e-02
1.710010e-02
1.657360e-02
1.464390e-02
1.424220e-02
1.464390e-02
1.424220e-02
1.219420e-02
1.189300e-02
1.219420e-02
1.189300e-02
9.749720e-03
9.529850e-03
9.749720e-03
9.529850e-03
7.309090e-03
7.156170e-03
7.309090e-03
7.156170e-03
4.871240e-03
4.774870e-03
4.871240e-03
4.774870e-03
2.435180e-03
2.388640e-03
2.435180e-03
2.388640e-03
0.000000e+00
0.000000e+00
</DataArray>
<DataArray type="Float32" Name="V4" format="ascii">
9.000000e-01
1.000000e+00
9.000000e-01
1.000000e+00
9.000000e-01
1.000000e+00
9.000000e-01
1.000000e+00
9.000000e-01
1.000000e+00
9.000000e-01
1.000000e+00
9.000000e-01
1.000000e+00
9.000000e-01
1.000000e+00
9.000000e-01
1.000000e+00
9.000000e-01
1.000000e+00
9.000000e-01
1.000000e+00
9.000000e-01
1.000000e+00
9.000000e-01
1.000000e+00
9.000000e-01
1.000000e+00
9.000000e-01
1.000000e+00
9.000000e-01
1.000000e+00
9.000000e-01
1.000000e+00
9.000000e-01
1.000000e+00
9.000000e-01
1.000000e+00
9.000000e-01
1.000000e+00
9.000000e-01
1.000000e+00
9.000000e-01
1.000000e+00
9.000000e-01
1.000000e+00
9.000000e-01
1.000000e+00
9.000000e-01
1.000000e+00
9.000000e-01
1.000000e+00
9.000000e-01
1.000000e+00
9.000000e-01
1.000000e+00
9.000000e-01
1.000000e+00
9.000000e-01
1.000000e+00
9.000000e-01
1.000000e+00
9.000000e-01
1.000000e+00
9.000000e-01
1.000000e+00
9.000000e-01
1.000000e+00
9.000000e-01
1.000000e+00
9.000000e-01
1.000000e+00
9.000000e-01
1.000000e+00
9.000000e-01
1.000000e+00
9.000000e-01
1.000000e+00
9.000000e-01
1.000000e+00
9.000000e-01
1.000000e+00
9.000000e-01
1.000000e+00
9.000000e-01
1.000000e+00
9.000000e-01
1.000000e+00
9.000000e-01
1.000000e+00
9.000000e-01
1.000000e+00
9.000000e-01
1.000000e+00
9.000000e-01
1.000000e+00
9.000000e-01
1.000000e+00
9.000000e-01
1.000000e+00
9.000000e-01
1.000000e+00
9.000000e-01
1.000000e+00
9.000000e-01
1.000000e+00
9.000000e-01
1.000000e+00
9.000000e-01
1.000000e+00
9.000000e-01
1.000000e+00
9.000000e-01
1.000000e+00
9.000000e-01
1.000000e+00
9.000000e-01
1.000000e+00
9.000000e-01
1.000000e+00
9.000000e-01
1.000000e+00
9.000000e-01
1.000000e+00
9.000000e-01
1.000000e+00
9.000000e-01
1.000000e+00
9.000000e-01
1.000000e+00
9.000000e-01
1.000000e+00
9.000000e-01
1.000000e+00
9.000000e-01
1.000000e+00
9.000000e-01
1.000000e+00
9.000000e-01
1.000000e+00
9.000000e-01
1.000000e+00
9.000000e-01
1.000000e+00
9.000000e-01
1.000000e+00
9.000000e-01
1.000000e+00
9.000000e-01
1.000000e+00
9.000000e-01
1.000000e+00
9.000000e-01
1.000000e+00
9.000000e-01
1.000000e+00
9.000000e-01
1.000000e+00
9.000000e-01
1.000000e+00
9.000000e-01
1.000000e+00
9.000000e-01
1.000000e+00
9.000000e-01
1.000000e+00
9.000000e-01
1.000000e+00
9.000000e-01
1.000000e+00
9.000000e-01
1.000000e+00
9.000000e-01
1.000000e+00
9.000000e-01
1.000000e+00
9.000000e-01
1.000000e+00
9.000000e-01
1.000000e+00
9.000000e-01
1.000000e+00
9.000000e-01
1.000000e+00
9.000000e-01
1.000000e+00
9.000000e-01
1.000000e+00
9.000000e-01
1.000000e+00
9.000000e-01
1.000000e+00
</DataArray>
<DataArray type="Float32" Name="V5" format="ascii">
0.000000e+00
0.000000e+00
3.272490e-02
3.272490e-02
3.272490e-02
3.272490e-02
6.544980e-02
6.544980e-02
6.544980e-02
6.544980e-02
9.817480e-02
9.817480e-02
9.817480e-02
9.817480e-02
1.309000e-01
1.309000e-01
1.309000e-01
1.309000e-01
1.636250e-01
1.636250e-01
1.636250e-01
1.636250e-01
1.963500e-01
1.963500e-01
1.963500e-01
1.963500e-01
2.290740e-01
2.290740e-01
2.290740e-01
2.290740e-01
2.617990e-01
2.617990e-01
2.617990e-01
2.617990e-01
2.945240e-01
2.945240e-01
2.945240e-01
2.945240e-01
3.272490e-01
3.272490e-01
3.272490e-01
3.272490e-01
3.599740e-01
3.599740e-01
3.599740e-01
3.599740e-01
3.926990e-01
3.926990e-01
3.926990e-01
3.926990e-01
4.254240e-01
4.254240e-01
4.254240e-01
4.254240e-01
4.581490e-01
4.581490e-01
4.581490e-01
4.581490e-01
4.908740e-01
4.908740e-01
4.908740e-01
4.908740e-01
5.235990e-01
5.235990e-01
5.235990e-01
5.235990e-01
5.563240e-01
5.563240e-01
5.563240e-01
5.563240e-01
5.890490e-01
5.890490e-01
5.890490e-01
5.890490e-01
6.217740e-01
6.217740e-01
6.217740e-01
6.217740e-01
6.544980e-01
6.544980e-01
6.544980e-01
6.544980e-01
6.872230e-01
6.872230e-01
6.872230e-01
6.872230e-01
7.199480e-01
7.199480e-01
7.199480e-01
7.199480e-01
7.526730e-01
7.526730e-01
7.526730e-01
7.526730e-01
7.853980e-01
7.853980e-01
7.853980e-01
7.853980e-01
8.181230e-01
8.181230e-01
8.181230e-01
8.181230e-01
8.508480e-01
8.508480e-01
8.508480e-01
8.508480e-01
8.835730e-01
8.835730e-01
8.835730e-01
8.835730e-01
9.162980e-01
9.162980e-01
9.162980e-01
9.162980e-01
9.490230e-01
9.490230e-01
9.490230e-01
9.490230e-01
9.817480e-01
9.817480e-01
9.817480e-01
9.817480e-01
1.014470e+00
1.014470e+00
1.014470e+00
1.014470e+00
1.047200e+00
1.047200e+00
1.047200e+00
1.047200e+00
1.079920e+00
1.079920e+00
1.079920e+00
1.079920e+00
1.112650e+00
1.112650e+00
1.112650e+00
1.112650e+00
1.145370e+00
1.145370e+00
1.145370e+00
1.145370e+00
1.178100e+00
1.178100e+00
1.178100e+00
1.178100e+00
1.210820e+00
1.210820e+00
1.210820e+00
1.210820e+00
1.243550e+00
1.243550e+00
1.243550e+00
1.243550e+00
1.276270e+00
1.276270e+00
1.276270e+00
1.276270e+00
1.309000e+00
1.309000e+00
1.309000e+00
1.309000e+00
1.341720e+00
1.341720e+00
1.341720e+00
1.341720e+00
1.374450e+00
1.374450e+00
1.374450e+00
1.374450e+00
1.407170e+00
1.407170e+00
1.407170e+00
1.407170e+00
1.439900e+00
1.439900e+00
1.439900e+00
1.439900e+00
1.472620e+00
1.472620e+00
1.472620e+00
1.472620e+00
1.505350e+00
1.505350e+00
1.505350e+00
1.505350e+00
1.538070e+00
1.538070e+00
1.538070e+00
1.538070e+00
1.570800e+00
1.570800e+00
</DataArray>
</PointData>
</Piece></UnstructuredGrid>
</VTKFile>
