<?xml version="1.0"?>
<VTKFile type="UnstructuredGrid" version="0.1" byte_order="LittleEndian" compressor="vtkZLibDataCompressor">
<UnstructuredGrid>
<Piece NumberOfPoints="192" NumberOfCells="48">
<Points>
<DataArray type="Float32" NumberOfComponents="3" format="ascii">
0.000000e+00 3.591230e-01 0.000000e+00
0.000000e+00 3.937500e-01 0.000000e+00
5.285930e-02 3.591290e-01 0.000000e+00
5.285360e-02 3.937500e-01 0.000000e+00
5.285930e-02 3.591290e-01 0.000000e+00
5.285360e-02 3.937500e-01 0.000000e+00
1.057170e-01 3.591440e-01 0.000000e+00
1.057050e-01 3.937500e-01 0.000000e+00
1.057170e-01 3.591440e-01 0.000000e+00
1.057050e-01 3.937500e-01 0.000000e+00
1.585700e-01 3.591710e-01 0.000000e+00
1.585530e-01 3.937500e-01 0.000000e+00
1.585700e-01 3.591710e-01 0.000000e+00
1.585530e-01 3.937500e-01 0.000000e+00
2.114170e-01 3.592070e-01 0.000000e+00
2.113940e-01 3.937500e-01 0.000000e+00
2.114170e-01 3.592070e-01 0.000000e+00
2.113940e-01 3.937500e-01 0.000000e+00
2.642560e-01 3.592540e-01 0.000000e+00
2.642270e-01 3.937500e-01 0.000000e+00
2.642560e-01 3.592540e-01 0.000000e+00
2.642270e-01 3.937500e-01 0.000000e+00
3.170830e-01 3.593120e-01 0.000000e+00
3.170480e-01 3.937500e-01 0.000000e+00
3.170830e-01 3.593120e-01 0.000000e+00
3.170480e-01 3.937500e-01 0.000000e+00
3.698960e-01 3.593790e-01 0.000000e+00
3.698550e-01 3.937500e-01 0.000000e+00
3.698960e-01 3.593790e-01 0.000000e+00
3.698550e-01 3.937500e-01 0.000000e+00
4.226940e-01 3.594570e-01 0.000000e+00
4.226480e-01 3.937500e-01 0.000000e+00
4.226940e-01 3.594570e-01 0.000000e+00
4.226480e-01 3.937500e-01 0.000000e+00
4.754750e-01 3.595450e-01 0.000000e+00
4.754230e-01 3.937500e-01 0.000000e+00
4.754750e-01 3.595450e-01 0.000000e+00
4.754230e-01 3.937500e-01 0.000000e+00
5.282340e-01 3.596430e-01 0.000000e+00
5.281770e-01 3.937500e-01 0.000000e+00
5.282340e-01 3.596430e-01 0.000000e+00
5.281770e-01 3.937500e-01 0.000000e+00
5.809700e-01 3.597500e-01 0.000000e+00
5.809080e-01 3.937500e-01 0.000000e+00
5.809700e-01 3.597500e-01 0.000000e+00
5.809080e-01 3.937500e-01 0.000000e+00
6.336800e-01 3.598670e-01 0.000000e+00
6.336120e-01 3.937500e-01 0.000000e+00
6.336800e-01 3.598670e-01 0.000000e+00
6.336120e-01 3.937500e-01 0.000000e+00
6.863600e-01 3.599940e-01 0.000000e+00
6.862870e-01 3.937500e-01 0.000000e+00
6.863600e-01 3.599940e-01 0.000000e+00
6.862870e-01 3.937500e-01 0.000000e+00
7.390070e-01 3.601290e-01 0.000000e+00
7.389290e-01 3.937500e-01 0.000000e+00
7.390070e-01 3.601290e-01 0.000000e+00
7.389290e-01 3.937500e-01 0.000000e+00
7.916180e-01 3.602740e-01 0.000000e+00
7.915350e-01 3.937500e-01 0.000000e+00
7.916180e-01 3.602740e-01 0.000000e+00
7.915350e-01 3.937500e-01 0.000000e+00
8.441900e-01 3.604280e-01 0.000000e+00
8.441010e-01 3.937500e-01 0.000000e+00
8.441900e-01 3.604280e-01 0.000000e+00
8.441010e-01 3.937500e-01 0.000000e+00
8.967170e-01 3.605900e-01 0.000000e+00
8.966230e-01 3.937500e-01 0.000000e+00
8.967170e-01 3.605900e-01 0.000000e+00
8.966230e-01 3.937500e-01 0.000000e+00
9.491970e-01 3.607600e-01 0.000000e+00
9.490980e-01 3.937500e-01 0.000000e+00
9.491970e-01 3.607600e-01 0.000000e+00
9.490980e-01 3.937500e-01 0.000000e+00
1.001620e+00 3.609390e-01 0.000000e+00
1.001520e+00 3.937500e-01 0.000000e+00
1.001620e+00 3.609390e-01 0.000000e+00
1.001520e+00 3.937500e-01 0.000000e+00
1.053990e+00 3.611260e-01 0.000000e+00
1.053890e+00 3.937500e-01 0.000000e+00
1.053990e+00 3.611260e-01 0.000000e+00
1.053890e+00 3.937500e-01 0.000000e+00
1.106300e+00 3.613200e-01 0.000000e+00
1.106190e+00 3.937500e-01 0.000000e+00
1.106300e+00 3.613200e-01 0.000000e+00
1.106190e+00 3.937500e-01 0.000000e+00
1.158550e+00 3.615220e-01 0.000000e+00
1.158430e+00 3.937500e-01 0.000000e+00
1.158550e+00 3.615220e-01 0.000000e+00
1.158430e+00 3.937500e-01 0.000000e+00
1.210720e+00 3.617300e-01 0.000000e+00
1.210600e+00 3.937500e-01 0.000000e+00
1.210720e+00 3.617300e-01 0.000000e+00
1.210600e+00 3.937500e-01 0.000000e+00
1.262810e+00 3.619460e-01 0.000000e+00
1.262680e+00 3.937500e-01 0.000000e+00
1.262810e+00 3.619460e-01 0.000000e+00
1.262680e+00 3.937500e-01 0.000000e+00
1.314820e+00 3.621680e-01 0.000000e+00
1.314690e+00 3.937500e-01 0.000000e+00
1.314820e+00 3.621680e-01 0.000000e+00
1.314690e+00 3.937500e-01 0.000000e+00
1.366740e+00 3.623960e-01 0.000000e+00
1.366600e+00 3.937500e-01 0.000000e+00
1.366740e+00 3.623960e-01 0.000000e+00
1.366600e+00 3.937500e-01 0.000000e+00
1.418550e+00 3.626300e-01 0.000000e+00
1.418420e+00 3.937500e-01 0.000000e+00
1.418550e+00 3.626300e-01 0.000000e+00
1.418420e+00 3.937500e-01 0.000000e+00
1.470270e+00 3.628700e-01 0.000000e+00
1.470130e+00 3.937500e-01 0.000000e+00
1.470270e+00 3.628700e-01 0.000000e+00
1.470130e+00 3.937500e-01 0.000000e+00
1.521870e+00 3.631150e-01 0.000000e+00
1.521730e+00 3.937500e-01 0.000000e+00
1.521870e+00 3.631150e-01 0.000000e+00
1.521730e+00 3.937500e-01 0.000000e+00
1.573350e+00 3.633650e-01 0.000000e+00
1.573210e+00 3.937500e-01 0.000000e+00
1.573350e+00 3.633650e-01 0.000000e+00
1.573210e+00 3.937500e-01 0.000000e+00
1.624690e+00 3.636200e-01 0.000000e+00
1.624570e+00 3.937500e-01 0.000000e+00
1.624690e+00 3.636200e-01 0.000000e+00
1.624570e+00 3.937500e-01 0.000000e+00
1.675890e+00 3.638800e-01 0.000000e+00
1.675820e+00 3.937500e-01 0.000000e+00
1.675890e+00 3.638800e-01 0.000000e+00
1.675820e+00 3.937500e-01 0.000000e+00
1.726870e+00 3.641460e-01 0.000000e+00
1.726970e+00 3.937500e-01 0.000000e+00
1.726870e+00 3.641460e-01 0.000000e+00
1.726970e+00 3.937500e-01 0.000000e+00
1.777570e+00 3.644170e-01 0.000000e+00
1.778150e+00 3.937500e-01 0.000000e+00
1.777570e+00 3.644170e-01 0.000000e+00
1.778150e+00 3.937500e-01 0.000000e+00
1.827690e+00 3.646660e-01 0.000000e+00
1.829530e+00 3.937500e-01 0.000000e+00
1.827690e+00 3.646660e-01 0.000000e+00
1.829530e+00 3.937500e-01 0.000000e+00
1.876680e+00 3.644040e-01 0.000000e+00
1.880960e+00 3.937500e-01 0.000000e+00
1.876680e+00 3.644040e-01 0.000000e+00
1.880960e+00 3.937500e-01 0.000000e+00
1.924130e+00 3.604650e-01 0.000000e+00
1.930330e+00 3.896020e-01 0.000000e+00
1.924130e+00 3.604650e-01 0.000000e+00
1.930330e+00 3.896020e-01 0.000000e+00
1.969530e+00 3.500180e-01 0.000000e+00
1.978750e+00 3.779870e-01 0.000000e+00
1.969530e+00 3.500180e-01 0.000000e+00
1.978750e+00 3.779870e-01 0.000000e+00
2.012590e+00 3.333310e-01 0.000000e+00
2.025170e+00 3.596510e-01 0.000000e+00
2.012590e+00 3.333310e-01 0.000000e+00
2.025170e+00 3.596510e-01 0.000000e+00
2.052790e+00 3.109200e-01 0.000000e+00
2.068580e+00 3.351490e-01 0.000000e+00
2.052790e+00 3.109200e-01 0.000000e+00
2.068580e+00 3.351490e-01 0.000000e+00
2.089540e+00 2.833750e-01 0.000000e+00
2.108210e+00 3.051610e-01 0.000000e+00
2.089540e+00 2.833750e-01 0.000000e+00
2.108210e+00 3.051610e-01 0.000000e+00
2.122350e+00 2.512970e-01 0.000000e+00
2.143520e+00 2.703680e-01 0.000000e+00
2.122350e+00 2.512970e-01 0.000000e+00
2.143520e+00 2.703680e-01 0.000000e+00
2.150760e+00 2.153430e-01 0.000000e+00
2.174020e+00 2.314970e-01 0.000000e+00
2.150760e+00 2.153430e-01 0.000000e+00
2.174020e+00 2.314970e-01 0.000000e+00
2.174440e+00 1.761410e-01 0.000000e+00
2.199410e+00 1.892240e-01 0.000000e+00
2.174440e+00 1.761410e-01 0.000000e+00
2.199410e+00 1.892240e-01 0.000000e+00
2.193130e+00 1.343660e-01 0.000000e+00
2.219400e+00 1.442680e-01 0.000000e+00
2.193130e+00 1.343660e-01 0.000000e+00
2.219400e+00 1.442680e-01 0.000000e+00
2.206620e+00 9.064330e-02 0.000000e+00
2.233810e+00 9.728450e-02 0.000000e+00
2.206620e+00 9.064330e-02 0.000000e+00
2.233810e+00 9.728450e-02 0.000000e+00
2.214760e+00 4.564610e-02 0.000000e+00
2.242510e+00 4.897900e-02 0.000000e+00
2.214760e+00 4.564610e-02 0.000000e+00
2.242510e+00 4.897900e-02 0.000000e+00
2.217490e+00 -8.145280e-06 0.000000e+00
2.245420e+00 -8.247880e-06 0.000000e+00
</DataArray>
</Points>
<Cells>
<DataArray type="Int32" Name="connectivity" format="ascii">
0 1 3 2
4 5 7 6
8 9 11 10
12 13 15 14
16 17 19 18
20 21 23 22
24 25 27 26
28 29 31 30
32 33 35 34
36 37 39 38
40 41 43 42
44 45 47 46
48 49 51 50
52 53 55 54
56 57 59 58
60 61 63 62
64 65 67 66
68 69 71 70
72 73 75 74
76 77 79 78
80 81 83 82
84 85 87 86
88 89 91 90
92 93 95 94
96 97 99 98
100 101 103 102
104 105 107 106
108 109 111 110
112 113 115 114
116 117 119 118
120 121 123 122
124 125 127 126
128 129 131 130
132 133 135 134
136 137 139 138
140 141 143 142
144 145 147 146
148 149 151 150
152 153 155 154
156 157 159 158
160 161 163 162
164 165 167 166
168 169 171 170
172 173 175 174
176 177 179 178
180 181 183 182
184 185 187 186
188 189 191 190
</DataArray>
<DataArray type="Int32" Name="offsets" format="ascii">
4
8
12
16
20
24
28
32
36
40
44
48
52
56
60
64
68
72
76
80
84
88
92
96
100
104
108
112
116
120
124
128
132
136
140
144
148
152
156
160
164
168
172
176
180
184
188
192
</DataArray>
<DataArray type="UInt8" Name="types" format="ascii">
9
9
9
9
9
9
9
9
9
9
9
9
9
9
9
9
9
9
9
9
9
9
9
9
9
9
9
9
9
9
9
9
9
9
9
9
9
9
9
9
9
9
9
9
9
9
9
9
</DataArray>
</Cells>
<PointData>
<DataArray type="Float32" Name="V1" format="ascii">
1.706400e+01
1.058580e+01
1.706950e+01
1.059130e+01
1.707160e+01
1.059000e+01
1.708490e+01
1.060320e+01
1.708900e+01
1.060050e+01
1.711170e+01
1.062320e+01
1.711750e+01
1.061870e+01
1.714950e+01
1.065070e+01
1.715700e+01
1.064470e+01
1.719840e+01
1.068600e+01
1.720780e+01
1.067830e+01
1.725840e+01
1.072900e+01
1.726970e+01
1.071960e+01
1.732980e+01
1.077970e+01
1.734290e+01
1.076880e+01
1.741250e+01
1.083830e+01
1.742750e+01
1.082570e+01
1.750660e+01
1.090490e+01
1.752360e+01
1.089060e+01
1.761230e+01
1.097940e+01
1.763120e+01
1.096350e+01
1.772980e+01
1.106200e+01
1.775060e+01
1.104440e+01
1.785900e+01
1.115280e+01
1.788190e+01
1.113350e+01
1.800030e+01
1.125190e+01
1.802520e+01
1.123080e+01
1.815380e+01
1.135940e+01
1.818070e+01
1.133650e+01
1.831960e+01
1.147550e+01
1.834870e+01
1.145080e+01
1.849800e+01
1.160020e+01
1.852920e+01
1.157370e+01
1.868930e+01
1.173370e+01
1.872270e+01
1.170540e+01
1.889360e+01
1.187630e+01
1.892920e+01
1.184600e+01
1.911120e+01
1.202800e+01
1.914910e+01
1.199580e+01
1.934230e+01
1.218910e+01
1.938260e+01
1.215490e+01
1.958740e+01
1.235970e+01
1.963000e+01
1.232350e+01
1.984660e+01
1.254010e+01
1.989170e+01
1.250180e+01
2.012040e+01
1.273050e+01
2.016800e+01
1.269010e+01
2.040900e+01
1.293110e+01
2.045920e+01
1.288860e+01
2.071290e+01
1.314230e+01
2.076560e+01
1.309750e+01
2.103230e+01
1.336420e+01
2.108780e+01
1.331720e+01
2.136780e+01
1.359720e+01
2.142590e+01
1.354790e+01
2.171970e+01
1.384160e+01
2.178030e+01
1.379030e+01
2.208820e+01
1.409810e+01
2.215070e+01
1.404520e+01
2.247310e+01
1.436760e+01
2.253560e+01
1.431480e+01
2.287300e+01
1.465220e+01
2.292950e+01
1.460460e+01
2.328290e+01
1.495800e+01
2.331580e+01
1.493050e+01
2.368650e+01
1.530110e+01
2.364470e+01
1.533730e+01
2.403630e+01
1.572890e+01
2.377900e+01
1.594980e+01
2.419750e+01
1.636830e+01
2.341940e+01
1.705850e+01
2.381550e+01
1.745460e+01
2.257360e+01
1.845850e+01
2.293470e+01
1.881960e+01
2.229040e+01
1.940020e+01
2.272050e+01
1.983040e+01
2.252680e+01
1.999320e+01
2.293820e+01
2.040450e+01
2.291650e+01
2.042280e+01
2.330510e+01
2.081140e+01
2.334360e+01
2.077890e+01
2.370280e+01
2.113810e+01
2.375900e+01
2.109060e+01
2.408260e+01
2.141420e+01
2.414010e+01
2.136580e+01
2.442260e+01
2.164830e+01
2.447440e+01
2.160440e+01
2.471130e+01
2.184140e+01
2.475470e+01
2.180480e+01
2.494250e+01
2.199260e+01
2.497580e+01
2.196440e+01
2.511170e+01
2.210040e+01
2.513430e+01
2.208140e+01
2.521660e+01
2.216370e+01
2.522800e+01
2.215410e+01
2.525550e+01
2.218160e+01
</DataArray>
<DataArray type="Float32" Name="V2" format="ascii">
3.591230e-01
3.937500e-01
3.606660e-01
3.952690e-01
3.606660e-01
3.952690e-01
3.652900e-01
3.998200e-01
3.652900e-01
3.998200e-01
3.729840e-01
4.073950e-01
3.729840e-01
4.073950e-01
3.837300e-01
4.179740e-01
3.837300e-01
4.179740e-01
3.975020e-01
4.315320e-01
3.975020e-01
4.315320e-01
4.142680e-01
4.480370e-01
4.142680e-01
4.480370e-01
4.339860e-01
4.674490e-01
4.339860e-01
4.674490e-01
4.566100e-01
4.897230e-01
4.566100e-01
4.897230e-01
4.820860e-01
5.148030e-01
4.820860e-01
5.148030e-01
5.103520e-01
5.426310e-01
5.103520e-01
5.426310e-01
5.413390e-01
5.731380e-01
5.413390e-01
5.731380e-01
5.749730e-01
6.062500e-01
5.749730e-01
6.062500e-01
6.111710e-01
6.418880e-01
6.111710e-01
6.418880e-01
6.498450e-01
6.799630e-01
6.498450e-01
6.799630e-01
6.909000e-01
7.203830e-01
6.909000e-01
7.203830e-01
7.342350e-01
7.630480e-01
7.342350e-01
7.630480e-01
7.797410e-01
8.078520e-01
7.797410e-01
8.078520e-01
8.273070e-01
8.546820e-01
8.273070e-01
8.546820e-01
8.768130e-01
9.034230e-01
8.768130e-01
9.034230e-01
9.281310e-01
9.539480e-01
9.281310e-01
9.539480e-01
9.811360e-01
1.006130e+00
9.811360e-01
1.006130e+00
1.035690e+00
1.059840e+00
1.035690e+00
1.059840e+00
1.091650e+00
1.114940e+00
1.091650e+00
1.114940e+00
1.148880e+00
1.171280e+00
1.148880e+00
1.171280e+00
1.207210e+00
1.228710e+00
1.207210e+00
1.228710e+00
1.266510e+00
1.287080e+00
1.266510e+00
1.287080e+00
1.326610e+00
1.346240e+00
1.326610e+00
1.346240e+00
1.387340e+00
1.406030e+00
1.387340e+00
1.406030e+00
1.448550e+00
1.466280e+00
1.448550e+00
1.466280e+00
1.510070e+00
1.526830e+00
1.510070e+00
1.526830e+00
1.571700e+00
1.587510e+00
1.571700e+00
1.587510e+00
1.633300e+00
1.648180e+00
1.633300e+00
1.648180e+00
1.694620e+00
1.708670e+00
1.694620e+00
1.708670e+00
1.755430e+00
1.768930e+00
1.755430e+00
1.768930e+00
1.815280e+00
1.828960e+00
1.815280e+00
1.828960e+00
1.873280e+00
1.888470e+00
1.873280e+00
1.888470e+00
1.927780e+00
1.943850e+00
1.927780e+00
1.943850e+00
1.977510e+00
1.995240e+00
1.977510e+00
1.995240e+00
2.022690e+00
2.042370e+00
2.022690e+00
2.042370e+00
2.063320e+00
2.084840e+00
2.063320e+00
2.084840e+00
2.099300e+00
2.122440e+00
2.099300e+00
2.122440e+00
2.130590e+00
2.155070e+00
2.130590e+00
2.155070e+00
2.157110e+00
2.182690e+00
2.157110e+00
2.182690e+00
2.178830e+00
2.205290e+00
2.178830e+00
2.205290e+00
2.195740e+00
2.222850e+00
2.195740e+00
2.222850e+00
2.207820e+00
2.235390e+00
2.207820e+00
2.235390e+00
2.215070e+00
2.242910e+00
2.215070e+00
2.242910e+00
2.217490e+00
2.245420e+00
</DataArray>
<DataArray type="Float32" Name="V3" format="ascii">
0.000000e+00
0.000000e+00
4.108070e-02
3.994220e-02
4.108070e-02
3.994220e-02
8.200130e-02
7.972640e-02
8.200130e-02
7.972640e-02
1.226020e-01
1.191950e-01
1.226020e-01
1.191950e-01
1.627230e-01
1.581910e-01
1.627230e-01
1.581910e-01
2.022050e-01
1.965570e-01
2.022050e-01
1.965570e-01
2.408920e-01
2.341390e-01
2.408920e-01
2.341390e-01
2.786260e-01
2.707820e-01
2.786260e-01
2.707820e-01
3.152570e-01
3.063370e-01
3.152570e-01
3.063370e-01
3.506310e-01
3.406520e-01
3.506310e-01
3.406520e-01
3.845980e-01
3.735800e-01
3.845980e-01
3.735800e-01
4.170120e-01
4.049760e-01
4.170120e-01
4.049760e-01
4.477290e-01
4.346990e-01
4.477290e-01
4.346990e-01
4.766080e-01
4.626100e-01
4.766080e-01
4.626100e-01
5.035140e-01
4.885740e-01
5.035140e-01
4.885740e-01
5.283130e-01
5.124590e-01
5.283130e-01
5.124590e-01
5.508760e-01
5.341380e-01
5.508760e-01
5.341380e-01
5.710780e-01
5.534880e-01
5.710780e-01
5.534880e-01
5.888000e-01
5.703900e-01
5.888000e-01
5.703900e-01
6.039280e-01
5.847320e-01
6.039280e-01
5.847320e-01
6.163510e-01
5.964050e-01
6.163510e-01
5.964050e-01
6.259660e-01
6.053050e-01
6.259660e-01
6.053050e-01
6.326740e-01
6.113360e-01
6.326740e-01
6.113360e-01
6.363830e-01
6.144060e-01
6.363830e-01
6.144060e-01
6.370070e-01
6.144290e-01
6.370070e-01
6.144290e-01
6.344660e-01
6.113270e-01
6.344660e-01
6.113270e-01
6.286870e-01
6.050260e-01
6.286870e-01
6.050260e-01
6.196050e-01
5.954620e-01
6.196050e-01
5.954620e-01
6.071590e-01
5.825750e-01
6.071590e-01
5.825750e-01
5.912990e-01
5.663150e-01
5.912990e-01
5.663150e-01
5.719790e-01
5.466380e-01
5.719790e-01
5.466380e-01
5.491630e-01
5.235130e-01
5.491630e-01
5.235130e-01
5.228090e-01
4.969090e-01
5.228090e-01
4.969090e-01
4.928970e-01
4.668380e-01
4.928970e-01
4.668380e-01
4.593590e-01
4.333080e-01
4.593590e-01
4.333080e-01
4.221440e-01
3.964130e-01
4.221440e-01
3.964130e-01
3.815040e-01
3.560310e-01
3.815040e-01
3.560310e-01
3.404190e-01
3.153330e-01
3.404190e-01
3.153330e-01
3.016350e-01
2.781140e-01
3.016350e-01
2.781140e-01
2.652510e-01
2.437140e-01
2.652510e-01
2.437140e-01
2.309700e-01
2.116530e-01
2.309700e-01
2.116530e-01
1.985170e-01
1.815400e-01
1.985170e-01
1.815400e-01
1.675740e-01
1.529990e-01
1.675740e-01
1.529990e-01
1.378860e-01
1.257370e-01
1.378860e-01
1.257370e-01
1.091810e-01
9.946770e-02
1.091810e-01
9.946770e-02
8.124840e-02
7.396950e-02
8.124840e-02
7.396950e-02
5.386260e-02
4.901410e-02
5.386260e-02
4.901410e-02
2.684640e-02
2.442310e-02
2.684640e-02
2.442310e-02
0.000000e+00
0.000000e+00
</DataArray>
<DataArray type="Float32" Name="V4" format="ascii">
9.000000e-01
1.000000e+00
9.000000e-01
1.000000e+00
9.000000e-01
1.000000e+00
9.000000e-01
1.000000e+00
9.000000e-01
1.000000e+00
9.000000e-01
1.000000e+00
9.000000e-01
1.000000e+00
9.000000e-01
1.000000e+00
9.000000e-01
1.000000e+00
9.000000e-01
1.000000e+00
9.000000e-01
1.000000e+00
9.000000e-01
1.000000e+00
9.000000e-01
1.000000e+00
9.000000e-01
1.000000e+00
9.000000e-01
1.000000e+00
9.000000e-01
1.000000e+00
9.000000e-01
1.000000e+00
9.000000e-01
1.000000e+00
9.000000e-01
1.000000e+00
9.000000e-01
1.000000e+00
9.000000e-01
1.000000e+00
9.000000e-01
1.000000e+00
9.000000e-01
1.000000e+00
9.000000e-01
1.000000e+00
9.000000e-01
1.000000e+00
9.000000e-01
1.000000e+00
9.000000e-01
1.000000e+00
9.000000e-01
1.000000e+00
9.000000e-01
1.000000e+00
9.000000e-01
1.000000e+00
9.000000e-01
1.000000e+00
9.000000e-01
1.000000e+00
9.000000e-01
1.000000e+00
9.000000e-01
1.000000e+00
9.000000e-01
1.000000e+00
9.000000e-01
1.000000e+00
9.000000e-01
1.000000e+00
9.000000e-01
1.000000e+00
9.000000e-01
1.000000e+00
9.000000e-01
1.000000e+00
9.000000e-01
1.000000e+00
9.000000e-01
1.000000e+00
9.000000e-01
1.000000e+00
9.000000e-01
1.000000e+00
9.000000e-01
1.000000e+00
9.000000e-01
1.000000e+00
9.000000e-01
1.000000e+00
9.000000e-01
1.000000e+00
9.000000e-01
1.000000e+00
9.000000e-01
1.000000e+00
9.000000e-01
1.000000e+00
9.000000e-01
1.000000e+00
9.000000e-01
1.000000e+00
9.000000e-01
1.000000e+00
9.000000e-01
1.000000e+00
9.000000e-01
1.000000e+00
9.000000e-01
1.000000e+00
9.000000e-01
1.000000e+00
9.000000e-01
1.000000e+00
9.000000e-01
1.000000e+00
9.000000e-01
1.000000e+00
9.000000e-01
1.000000e+00
9.000000e-01
1.000000e+00
9.000000e-01
1.000000e+00
9.000000e-01
1.000000e+00
9.000000e-01
1.000000e+00
9.000000e-01
1.000000e+00
9.000000e-01
1.000000e+00
9.000000e-01
1.000000e+00
9.000000e-01
1.000000e+00
9.000000e-01
1.000000e+00
9.000000e-01
1.000000e+00
9.000000e-01
1.000000e+00
9.000000e-01
1.000000e+00
9.000000e-01
1.000000e+00
9.000000e-01
1.000000e+00
9.000000e-01
1.000000e+00
9.000000e-01
1.000000e+00
9.000000e-01
1.000000e+00
9.000000e-01
1.000000e+00
9.000000e-01
1.000000e+00
9.000000e-01
1.000000e+00
9.000000e-01
1.000000e+00
9.000000e-01
1.000000e+00
9.000000e-01
1.000000e+00
9.000000e-01
1.000000e+00
9.000000e-01
1.000000e+00
9.000000e-01
1.000000e+00
9.000000e-01
1.000000e+00
9.000000e-01
1.000000e+00
9.000000e-01
1.000000e+00
9.000000e-01
1.000000e+00
9.000000e-01
1.000000e+00
9.000000e-01
1.000000e+00
9.000000e-01
1.000000e+00
9.000000e-01
1.000000e+00
</DataArray>
<DataArray type="Float32" Name="V5" format="ascii">
0.000000e+00
0.000000e+00
3.272490e-02
3.272490e-02
3.272490e-02
3.272490e-02
6.544980e-02
6.544980e-02
6.544980e-02
6.544980e-02
9.817480e-02
9.817480e-02
9.817480e-02
9.817480e-02
1.309000e-01
1.309000e-01
1.309000e-01
1.309000e-01
1.636250e-01
1.636250e-01
1.636250e-01
1.636250e-01
1.963500e-01
1.963500e-01
1.963500e-01
1.963500e-01
2.290740e-01
2.290740e-01
2.290740e-01
2.290740e-01
2.617990e-01
2.617990e-01
2.617990e-01
2.617990e-01
2.945240e-01
2.945240e-01
2.945240e-01
2.945240e-01
3.272490e-01
3.272490e-01
3.272490e-01
3.272490e-01
3.599740e-01
3.599740e-01
3.599740e-01
3.599740e-01
3.926990e-01
3.926990e-01
3.926990e-01
3.926990e-01
4.254240e-01
4.254240e-01
4.254240e-01
4.254240e-01
4.581490e-01
4.581490e-01
4.581490e-01
4.581490e-01
4.908740e-01
4.908740e-01
4.908740e-01
4.908740e-01
5.235990e-01
5.235990e-01
5.235990e-01
5.235990e-01
5.563240e-01
5.563240e-01
5.563240e-01
5.563240e-01
5.890490e-01
5.890490e-01
5.890490e-01
5.890490e-01
6.217740e-01
6.217740e-01
6.217740e-01
6.217740e-01
6.544980e-01
6.544980e-01
6.544980e-01
6.544980e-01
6.872230e-01
6.872230e-01
6.872230e-01
6.872230e-01
7.199480e-01
7.199480e-01
7.199480e-01
7.199480e-01
7.526730e-01
7.526730e-01
7.526730e-01
7.526730e-01
7.853980e-01
7.853980e-01
7.853980e-01
7.853980e-01
8.181230e-01
8.181230e-01
8.181230e-01
8.181230e-01
8.508480e-01
8.508480e-01
8.508480e-01
8.508480e-01
8.835730e-01
8.835730e-01
8.835730e-01
8.835730e-01
9.162980e-01
9.162980e-01
9.162980e-01
9.162980e-01
9.490230e-01
9.490230e-01
9.490230e-01
9.490230e-01
9.817480e-01
9.817480e-01
9.817480e-01
9.817480e-01
1.014470e+00
1.014470e+00
1.014470e+00
1.014470e+00
1.047200e+00
1.047200e+00
1.047200e+00
1.047200e+00
1.079920e+00
1.079920e+00
1.079920e+00
1.079920e+00
1.112650e+00
1.112650e+00
1.112650e+00
1.112650e+00
1.145370e+00
1.145370e+00
1.145370e+00
1.145370e+00
1.178100e+00
1.178100e+00
1.178100e+00
1.178100e+00
1.210820e+00
1.210820e+00
1.210820e+00
1.210820e+00
1.243550e+00
1.243550e+00
1.243550e+00
1.243550e+00
1.276270e+00
1.276270e+00
1.276270e+00
1.276270e+00
1.309000e+00
1.309000e+00
1.309000e+00
1.309000e+00
1.341720e+00
1.341720e+00
1.341720e+00
1.341720e+00
1.374450e+00
1.374450e+00
1.374450e+00
1.374450e+00
1.407170e+00
1.407170e+00
1.407170e+00
1.407170e+00
1.439900e+00
1.439900e+00
1.439900e+00
1.439900e+00
1.472620e+00
1.472620e+00
1.472620e+00
1.472620e+00
1.505350e+00
1.505350e+00
1.505350e+00
1.505350e+00
1.538070e+00
1.538070e+00
1.538070e+00
1.538070e+00
1.570800e+00
1.570800e+00
</DataArray>
</PointData>
</Piece></UnstructuredGrid>
</VTKFile>
