<?xml version="1.0"?>
<VTKFile type="UnstructuredGrid" version="0.1" byte_order="LittleEndian" compressor="vtkZLibDataCompressor">
<UnstructuredGrid>
<Piece NumberOfPoints="192" NumberOfCells="48">
<Points>
<DataArray type="Float32" NumberOfComponents="3" format="ascii">
0.000000e+00 5.706290e-01 0.000000e+00
0.000000e+00 6.600000e-01 0.000000e+00
3.292190e-02 5.706420e-01 0.000000e+00
3.289050e-02 6.600000e-01 0.000000e+00
3.292190e-02 5.706420e-01 0.000000e+00
3.289050e-02 6.600000e-01 0.000000e+00
6.584220e-02 5.706820e-01 0.000000e+00
6.577950e-02 6.600000e-01 0.000000e+00
6.584220e-02 5.706820e-01 0.000000e+00
6.577950e-02 6.600000e-01 0.000000e+00
9.875940e-02 5.707470e-01 0.000000e+00
9.866530e-02 6.600000e-01 0.000000e+00
9.875940e-02 5.707470e-01 0.000000e+00
9.866530e-02 6.600000e-01 0.000000e+00
1.316720e-01 5.708380e-01 0.000000e+00
1.315470e-01 6.600000e-01 0.000000e+00
1.316720e-01 5.708380e-01 0.000000e+00
1.315470e-01 6.600000e-01 0.000000e+00
1.645780e-01 5.709560e-01 0.000000e+00
1.644210e-01 6.600000e-01 0.000000e+00
1.645780e-01 5.709560e-01 0.000000e+00
1.644210e-01 6.600000e-01 0.000000e+00
1.974760e-01 5.710990e-01 0.000000e+00
1.972880e-01 6.600000e-01 0.000000e+00
1.974760e-01 5.710990e-01 0.000000e+00
1.972880e-01 6.600000e-01 0.000000e+00
2.303630e-01 5.712690e-01 0.000000e+00
2.301440e-01 6.600000e-01 0.000000e+00
2.303630e-01 5.712690e-01 0.000000e+00
2.301440e-01 6.600000e-01 0.000000e+00
2.632400e-01 5.714640e-01 0.000000e+00
2.629900e-01 6.600000e-01 0.000000e+00
2.632400e-01 5.714640e-01 0.000000e+00
2.629900e-01 6.600000e-01 0.000000e+00
2.961040e-01 5.716860e-01 0.000000e+00
2.958230e-01 6.600000e-01 0.000000e+00
2.961040e-01 5.716860e-01 0.000000e+00
2.958230e-01 6.600000e-01 0.000000e+00
3.289550e-01 5.719330e-01 0.000000e+00
3.286410e-01 6.600000e-01 0.000000e+00
3.289550e-01 5.719330e-01 0.000000e+00
3.286410e-01 6.600000e-01 0.000000e+00
3.617910e-01 5.722070e-01 0.000000e+00
3.614430e-01 6.600000e-01 0.000000e+00
3.617910e-01 5.722070e-01 0.000000e+00
3.614430e-01 6.600000e-01 0.000000e+00
3.946120e-01 5.725080e-01 0.000000e+00
3.942270e-01 6.600000e-01 0.000000e+00
3.946120e-01 5.725080e-01 0.000000e+00
3.942270e-01 6.600000e-01 0.000000e+00
4.274160e-01 5.728390e-01 0.000000e+00
4.269940e-01 6.600000e-01 0.000000e+00
4.274160e-01 5.728390e-01 0.000000e+00
4.269940e-01 6.600000e-01 0.000000e+00
4.602010e-01 5.732050e-01 0.000000e+00
4.597480e-01 6.600000e-01 0.000000e+00
4.602010e-01 5.732050e-01 0.000000e+00
4.597480e-01 6.600000e-01 0.000000e+00
4.929610e-01 5.736130e-01 0.000000e+00
4.925040e-01 6.600000e-01 0.000000e+00
4.929610e-01 5.736130e-01 0.000000e+00
4.925040e-01 6.600000e-01 0.000000e+00
5.256760e-01 5.740750e-01 0.000000e+00
5.252910e-01 6.600000e-01 0.000000e+00
5.256760e-01 5.740750e-01 0.000000e+00
5.252910e-01 6.600000e-01 0.000000e+00
5.582980e-01 5.745970e-01 0.000000e+00
5.581660e-01 6.600000e-01 0.000000e+00
5.582980e-01 5.745970e-01 0.000000e+00
5.581660e-01 6.600000e-01 0.000000e+00
5.907240e-01 5.751630e-01 0.000000e+00
5.912270e-01 6.600000e-01 0.000000e+00
5.907240e-01 5.751630e-01 0.000000e+00
5.912270e-01 6.600000e-01 0.000000e+00
6.227660e-01 5.756780e-01 0.000000e+00
6.246010e-01 6.600000e-01 0.000000e+00
6.227660e-01 5.756780e-01 0.000000e+00
6.246010e-01 6.600000e-01 0.000000e+00
6.541500e-01 5.758590e-01 0.000000e+00
6.583890e-01 6.600000e-01 0.000000e+00
6.541500e-01 5.758590e-01 0.000000e+00
6.583890e-01 6.600000e-01 0.000000e+00
6.847930e-01 5.752370e-01 0.000000e+00
6.924640e-01 6.598280e-01 0.000000e+00
6.847930e-01 5.752370e-01 0.000000e+00
6.924640e-01 6.598280e-01 0.000000e+00
7.146950e-01 5.731290e-01 0.000000e+00
7.265480e-01 6.570950e-01 0.000000e+00
7.146950e-01 5.731290e-01 0.000000e+00
7.265480e-01 6.570950e-01 0.000000e+00
7.437270e-01 5.691490e-01 0.000000e+00
7.606840e-01 6.516780e-01 0.000000e+00
7.437270e-01 5.691490e-01 0.000000e+00
7.606840e-01 6.516780e-01 0.000000e+00
7.720440e-01 5.630190e-01 0.000000e+00
7.945330e-01 6.436350e-01 0.000000e+00
7.720440e-01 5.630190e-01 0.000000e+00
7.945330e-01 6.436350e-01 0.000000e+00
7.996640e-01 5.547050e-01 0.000000e+00
8.277510e-01 6.329770e-01 0.000000e+00
7.996640e-01 5.547050e-01 0.000000e+00
8.277510e-01 6.329770e-01 0.000000e+00
8.265350e-01 5.442560e-01 0.000000e+00
8.600550e-01 6.198060e-01 0.000000e+00
8.265350e-01 5.442560e-01 0.000000e+00
8.600550e-01 6.198060e-01 0.000000e+00
8.525870e-01 5.317610e-01 0.000000e+00
8.912290e-01 6.042850e-01 0.000000e+00
8.525870e-01 5.317610e-01 0.000000e+00
8.912290e-01 6.042850e-01 0.000000e+00
8.777410e-01 5.173340e-01 0.000000e+00
9.211240e-01 5.866030e-01 0.000000e+00
8.777410e-01 5.173340e-01 0.000000e+00
9.211240e-01 5.866030e-01 0.000000e+00
9.019260e-01 5.011040e-01 0.000000e+00
9.496390e-01 5.669590e-01 0.000000e+00
9.019260e-01 5.011040e-01 0.000000e+00
9.496390e-01 5.669590e-01 0.000000e+00
9.250770e-01 4.832050e-01 0.000000e+00
9.767120e-01 5.455430e-01 0.000000e+00
9.250770e-01 4.832050e-01 0.000000e+00
9.767120e-01 5.455430e-01 0.000000e+00
9.471410e-01 4.637720e-01 0.000000e+00
1.002300e+00 5.225350e-01 0.000000e+00
9.471410e-01 4.637720e-01 0.000000e+00
1.002300e+00 5.225350e-01 0.000000e+00
9.680780e-01 4.429270e-01 0.000000e+00
1.026410e+00 4.980900e-01 0.000000e+00
9.680780e-01 4.429270e-01 0.000000e+00
1.026410e+00 4.980900e-01 0.000000e+00
9.878430e-01 4.208050e-01 0.000000e+00
1.049010e+00 4.723670e-01 0.000000e+00
9.878430e-01 4.208050e-01 0.000000e+00
1.049010e+00 4.723670e-01 0.000000e+00
1.006420e+00 3.975110e-01 0.000000e+00
1.070110e+00 4.454830e-01 0.000000e+00
1.006420e+00 3.975110e-01 0.000000e+00
1.070110e+00 4.454830e-01 0.000000e+00
1.023770e+00 3.731670e-01 0.000000e+00
1.089720e+00 4.175710e-01 0.000000e+00
1.023770e+00 3.731670e-01 0.000000e+00
1.089720e+00 4.175710e-01 0.000000e+00
1.039890e+00 3.478610e-01 0.000000e+00
1.107850e+00 3.887230e-01 0.000000e+00
1.039890e+00 3.478610e-01 0.000000e+00
1.107850e+00 3.887230e-01 0.000000e+00
1.054760e+00 3.217040e-01 0.000000e+00
1.124490e+00 3.590530e-01 0.000000e+00
1.054760e+00 3.217040e-01 0.000000e+00
1.124490e+00 3.590530e-01 0.000000e+00
1.068360e+00 2.947710e-01 0.000000e+00
1.139670e+00 3.286330e-01 0.000000e+00
1.068360e+00 2.947710e-01 0.000000e+00
1.139670e+00 3.286330e-01 0.000000e+00
1.080690e+00 2.671620e-01 0.000000e+00
1.153380e+00 2.975640e-01 0.000000e+00
1.080690e+00 2.671620e-01 0.000000e+00
1.153380e+00 2.975640e-01 0.000000e+00
1.091740e+00 2.389410e-01 0.000000e+00
1.165640e+00 2.659050e-01 0.000000e+00
1.091740e+00 2.389410e-01 0.000000e+00
1.165640e+00 2.659050e-01 0.000000e+00
1.101510e+00 2.101990e-01 0.000000e+00
1.176450e+00 2.337490e-01 0.000000e+00
1.101510e+00 2.101990e-01 0.000000e+00
1.176450e+00 2.337490e-01 0.000000e+00
1.109980e+00 1.809940e-01 0.000000e+00
1.185810e+00 2.011450e-01 0.000000e+00
1.109980e+00 1.809940e-01 0.000000e+00
1.185810e+00 2.011450e-01 0.000000e+00
1.117150e+00 1.514120e-01 0.000000e+00
1.193720e+00 1.681820e-01 0.000000e+00
1.117150e+00 1.514120e-01 0.000000e+00
1.193720e+00 1.681820e-01 0.000000e+00
1.123030e+00 1.215020e-01 0.000000e+00
1.200190e+00 1.349030e-01 0.000000e+00
1.123030e+00 1.215020e-01 0.000000e+00
1.200190e+00 1.349030e-01 0.000000e+00
1.127600e+00 9.134930e-02 0.000000e+00
1.205220e+00 1.013920e-01 0.000000e+00
1.127600e+00 9.134930e-02 0.000000e+00
1.205220e+00 1.013920e-01 0.000000e+00
1.130870e+00 6.099910e-02 0.000000e+00
1.208810e+00 6.768950e-02 0.000000e+00
1.130870e+00 6.099910e-02 0.000000e+00
1.208810e+00 6.768950e-02 0.000000e+00
1.132830e+00 3.053320e-02 0.000000e+00
1.210970e+00 3.387760e-02 0.000000e+00
1.132830e+00 3.053320e-02 0.000000e+00
1.210970e+00 3.387760e-02 0.000000e+00
1.133480e+00 -4.163520e-06 0.000000e+00
1.211690e+00 -4.450780e-06 0.000000e+00
</DataArray>
</Points>
<Cells>
<DataArray type="Int32" Name="connectivity" format="ascii">
0 1 3 2
4 5 7 6
8 9 11 10
12 13 15 14
16 17 19 18
20 21 23 22
24 25 27 26
28 29 31 30
32 33 35 34
36 37 39 38
40 41 43 42
44 45 47 46
48 49 51 50
52 53 55 54
56 57 59 58
60 61 63 62
64 65 67 66
68 69 71 70
72 73 75 74
76 77 79 78
80 81 83 82
84 85 87 86
88 89 91 90
92 93 95 94
96 97 99 98
100 101 103 102
104 105 107 106
108 109 111 110
112 113 115 114
116 117 119 118
120 121 123 122
124 125 127 126
128 129 131 130
132 133 135 134
136 137 139 138
140 141 143 142
144 145 147 146
148 149 151 150
152 153 155 154
156 157 159 158
160 161 163 162
164 165 167 166
168 169 171 170
172 173 175 174
176 177 179 178
180 181 183 182
184 185 187 186
188 189 191 190
</DataArray>
<DataArray type="Int32" Name="offsets" format="ascii">
4
8
12
16
20
24
28
32
36
40
44
48
52
56
60
64
68
72
76
80
84
88
92
96
100
104
108
112
116
120
124
128
132
136
140
144
148
152
156
160
164
168
172
176
180
184
188
192
</DataArray>
<DataArray type="UInt8" Name="types" format="ascii">
9
9
9
9
9
9
9
9
9
9
9
9
9
9
9
9
9
9
9
9
9
9
9
9
9
9
9
9
9
9
9
9
9
9
9
9
9
9
9
9
9
9
9
9
9
9
9
9
</DataArray>
</Cells>
<PointData>
<DataArray type="Float32" Name="V1" format="ascii">
1.551840e+00
-5.233150e-01
1.553520e+00
-5.216310e-01
1.553800e+00
-5.214750e-01
1.557760e+00
-5.175220e-01
1.558170e+00
-5.174320e-01
1.565090e+00
-5.105120e-01
1.565510e+00
-5.105820e-01
1.575350e+00
-5.007460e-01
1.575810e+00
-5.009420e-01
1.588550e+00
-4.882040e-01
1.589070e+00
-4.885160e-01
1.604720e+00
-4.728710e-01
1.605330e+00
-4.732990e-01
1.623890e+00
-4.547370e-01
1.624610e+00
-4.552910e-01
1.646110e+00
-4.337930e-01
1.646960e+00
-4.345010e-01
1.671420e+00
-4.100470e-01
1.672470e+00
-4.109580e-01
1.699900e+00
-3.835350e-01
1.701250e+00
-3.847340e-01
1.731630e+00
-3.543550e-01
1.733420e+00
-3.559620e-01
1.766670e+00
-3.227040e-01
1.769030e+00
-3.248340e-01
1.804960e+00
-2.889130e-01
1.807870e+00
-2.915310e-01
1.845990e+00
-2.534110e-01
1.848830e+00
-2.559030e-01
1.888310e+00
-2.164270e-01
1.888740e+00
-2.166050e-01
1.928330e+00
-1.770130e-01
1.920010e+00
-1.690340e-01
1.958570e+00
-1.304650e-01
1.926880e+00
-1.010480e-01
1.965470e+00
-6.245710e-02
1.881100e+00
1.470450e-02
1.929010e+00
6.261180e-02
1.741910e+00
2.319090e-01
1.830360e+00
3.203560e-01
1.471480e+00
6.601170e-01
1.641510e+00
8.301460e-01
1.258960e+00
1.211140e+00
1.355780e+00
1.307960e+00
1.151600e+00
1.483190e+00
1.215010e+00
1.546600e+00
1.095740e+00
1.655540e+00
1.158840e+00
1.718640e+00
1.093450e+00
1.779010e+00
1.156800e+00
1.842360e+00
1.127970e+00
1.869000e+00
1.189850e+00
1.930880e+00
1.185300e+00
1.935090e+00
1.244520e+00
1.994320e+00
1.255420e+00
1.984260e+00
1.311290e+00
2.040130e+00
1.331400e+00
2.021560e+00
1.383550e+00
2.073700e+00
1.408540e+00
2.050620e+00
1.456820e+00
2.098890e+00
1.483800e+00
2.073970e+00
1.528200e+00
2.118380e+00
1.555280e+00
2.093360e+00
1.595920e+00
2.134010e+00
1.621920e+00
2.109980e+00
1.658940e+00
2.146990e+00
1.683190e+00
2.124570e+00
1.716790e+00
2.158160e+00
1.738980e+00
2.137660e+00
1.769330e+00
2.168010e+00
1.789310e+00
2.149540e+00
1.816630e+00
2.176860e+00
1.834430e+00
2.160400e+00
1.858880e+00
2.184860e+00
1.874570e+00
2.170350e+00
1.896350e+00
2.192130e+00
1.910070e+00
2.179440e+00
1.929320e+00
2.198690e+00
1.941200e+00
2.187700e+00
1.958060e+00
2.204560e+00
1.968250e+00
2.195140e+00
1.982840e+00
2.209740e+00
1.991470e+00
2.201760e+00
2.003910e+00
2.214210e+00
2.011090e+00
2.207570e+00
2.021460e+00
2.217950e+00
2.027290e+00
2.212560e+00
2.035680e+00
2.220950e+00
2.040250e+00
2.216730e+00
2.046710e+00
2.223190e+00
2.050080e+00
2.220080e+00
2.054660e+00
2.224660e+00
2.056880e+00
2.222610e+00
2.059620e+00
2.225350e+00
2.060720e+00
2.224330e+00
2.061630e+00
2.225240e+00
</DataArray>
<DataArray type="Float32" Name="V2" format="ascii">
5.706290e-01
6.600000e-01
5.714140e-01
6.607230e-01
5.714140e-01
6.607230e-01
5.737660e-01
6.628890e-01
5.737660e-01
6.628890e-01
5.776790e-01
6.664930e-01
5.776790e-01
6.664930e-01
5.831410e-01
6.715240e-01
5.831410e-01
6.715240e-01
5.901390e-01
6.779680e-01
5.901390e-01
6.779680e-01
5.986520e-01
6.858070e-01
5.986520e-01
6.858070e-01
6.086560e-01
6.950190e-01
6.086560e-01
6.950190e-01
6.201240e-01
7.055780e-01
6.201240e-01
7.055780e-01
6.330240e-01
7.174530e-01
6.330240e-01
7.174530e-01
6.473200e-01
7.306120e-01
6.473200e-01
7.306120e-01
6.629730e-01
7.450160e-01
6.629730e-01
7.450160e-01
6.799400e-01
7.606240e-01
6.799400e-01
7.606240e-01
6.981760e-01
7.773930e-01
6.981760e-01
7.773930e-01
7.176330e-01
7.952780e-01
7.176330e-01
7.952780e-01
7.382620e-01
8.142330e-01
7.382620e-01
8.142330e-01
7.600020e-01
8.342220e-01
7.600020e-01
8.342220e-01
7.827690e-01
8.552230e-01
7.827690e-01
8.552230e-01
8.064200e-01
8.772380e-01
8.064200e-01
8.772380e-01
8.306860e-01
9.002950e-01
8.306860e-01
9.002950e-01
8.550800e-01
9.244150e-01
8.550800e-01
9.244150e-01
8.790920e-01
9.493480e-01
8.790920e-01
9.493480e-01
9.021320e-01
9.730770e-01
9.021320e-01
9.730770e-01
9.238070e-01
9.956340e-01
9.238070e-01
9.956340e-01
9.440320e-01
1.016940e+00
9.440320e-01
1.016940e+00
9.628380e-01
1.036840e+00
9.628380e-01
1.036840e+00
9.802750e-01
1.055290e+00
9.802750e-01
1.055290e+00
9.964040e-01
1.072280e+00
9.964040e-01
1.072280e+00
1.011290e+00
1.087880e+00
1.011290e+00
1.087880e+00
1.025010e+00
1.102150e+00
1.025010e+00
1.102150e+00
1.037630e+00
1.115190e+00
1.037630e+00
1.115190e+00
1.049220e+00
1.127090e+00
1.049220e+00
1.127090e+00
1.059840e+00
1.137940e+00
1.059840e+00
1.137940e+00
1.069570e+00
1.147810e+00
1.069570e+00
1.147810e+00
1.078440e+00
1.156790e+00
1.078440e+00
1.156790e+00
1.086520e+00
1.164920e+00
1.086520e+00
1.164920e+00
1.093860e+00
1.172270e+00
1.093860e+00
1.172270e+00
1.100470e+00
1.178890e+00
1.100470e+00
1.178890e+00
1.106420e+00
1.184820e+00
1.106420e+00
1.184820e+00
1.111710e+00
1.190100e+00
1.111710e+00
1.190100e+00
1.116390e+00
1.194750e+00
1.116390e+00
1.194750e+00
1.120460e+00
1.198790e+00
1.120460e+00
1.198790e+00
1.123960e+00
1.202260e+00
1.123960e+00
1.202260e+00
1.126900e+00
1.205170e+00
1.126900e+00
1.205170e+00
1.129280e+00
1.207530e+00
1.129280e+00
1.207530e+00
1.131120e+00
1.209360e+00
1.131120e+00
1.209360e+00
1.132440e+00
1.210650e+00
1.132440e+00
1.210650e+00
1.133220e+00
1.211430e+00
1.133220e+00
1.211430e+00
1.133480e+00
1.211690e+00
</DataArray>
<DataArray type="Float32" Name="V3" format="ascii">
0.000000e+00
0.000000e+00
1.423340e-02
1.127830e-02
1.423340e-02
1.127830e-02
2.837690e-02
2.247260e-02
2.837690e-02
2.247260e-02
4.234090e-02
3.349890e-02
4.234090e-02
3.349890e-02
5.603590e-02
4.427370e-02
5.603590e-02
4.427370e-02
6.937320e-02
5.471390e-02
6.937320e-02
5.471390e-02
8.226490e-02
6.473730e-02
8.226490e-02
6.473730e-02
9.462370e-02
7.426210e-02
9.462370e-02
7.426210e-02
1.063650e-01
8.320860e-02
1.063650e-01
8.320860e-02
1.174030e-01
9.149720e-02
1.174030e-01
9.149720e-02
1.276560e-01
9.905010e-02
1.276560e-01
9.905010e-02
1.370430e-01
1.057910e-01
1.370430e-01
1.057910e-01
1.454840e-01
1.116470e-01
1.454840e-01
1.116470e-01
1.529030e-01
1.165460e-01
1.529030e-01
1.165460e-01
1.592200e-01
1.204250e-01
1.592200e-01
1.204250e-01
1.643540e-01
1.232280e-01
1.643540e-01
1.232280e-01
1.682110e-01
1.249150e-01
1.682110e-01
1.249150e-01
1.706810e-01
1.254710e-01
1.706810e-01
1.254710e-01
1.716260e-01
1.249110e-01
1.716260e-01
1.249110e-01
1.708930e-01
1.232690e-01
1.708930e-01
1.232690e-01
1.684120e-01
1.205530e-01
1.684120e-01
1.205530e-01
1.644260e-01
1.166920e-01
1.644260e-01
1.166920e-01
1.594460e-01
1.129950e-01
1.594460e-01
1.129950e-01
1.537540e-01
1.097140e-01
1.537540e-01
1.097140e-01
1.478030e-01
1.067010e-01
1.478030e-01
1.067010e-01
1.417840e-01
1.038580e-01
1.417840e-01
1.038580e-01
1.357790e-01
1.010790e-01
1.357790e-01
1.010790e-01
1.298190e-01
9.827160e-02
1.298190e-01
9.827160e-02
1.239060e-01
9.536110e-02
1.239060e-01
9.536110e-02
1.180300e-01
9.229260e-02
1.180300e-01
9.229260e-02
1.121750e-01
8.902930e-02
1.121750e-01
8.902930e-02
1.063210e-01
8.554980e-02
1.063210e-01
8.554980e-02
1.004510e-01
8.184310e-02
1.004510e-01
8.184310e-02
9.455160e-02
7.791030e-02
9.455160e-02
7.791030e-02
8.860830e-02
7.375410e-02
8.860830e-02
7.375410e-02
8.261580e-02
6.938670e-02
8.261580e-02
6.938670e-02
7.656460e-02
6.481790e-02
7.656460e-02
6.481790e-02
7.045520e-02
6.006470e-02
7.045520e-02
6.006470e-02
6.428280e-02
5.513950e-02
6.428280e-02
5.513950e-02
5.805210e-02
5.006110e-02
5.805210e-02
5.006110e-02
5.176180e-02
4.484250e-02
5.176180e-02
4.484250e-02
4.541960e-02
3.950290e-02
4.541960e-02
3.950290e-02
3.902640e-02
3.405500e-02
3.902640e-02
3.405500e-02
3.259180e-02
2.851780e-02
3.259180e-02
2.851780e-02
2.611830e-02
2.290340e-02
2.611830e-02
2.290340e-02
1.961650e-02
1.723080e-02
1.961650e-02
1.723080e-02
1.308990e-02
1.151150e-02
1.308990e-02
1.151150e-02
6.549820e-03
5.764060e-03
6.549820e-03
5.764060e-03
0.000000e+00
0.000000e+00
</DataArray>
<DataArray type="Float32" Name="V4" format="ascii">
9.000000e-01
1.000000e+00
9.000000e-01
1.000000e+00
9.000000e-01
1.000000e+00
9.000000e-01
1.000000e+00
9.000000e-01
1.000000e+00
9.000000e-01
1.000000e+00
9.000000e-01
1.000000e+00
9.000000e-01
1.000000e+00
9.000000e-01
1.000000e+00
9.000000e-01
1.000000e+00
9.000000e-01
1.000000e+00
9.000000e-01
1.000000e+00
9.000000e-01
1.000000e+00
9.000000e-01
1.000000e+00
9.000000e-01
1.000000e+00
9.000000e-01
1.000000e+00
9.000000e-01
1.000000e+00
9.000000e-01
1.000000e+00
9.000000e-01
1.000000e+00
9.000000e-01
1.000000e+00
9.000000e-01
1.000000e+00
9.000000e-01
1.000000e+00
9.000000e-01
1.000000e+00
9.000000e-01
1.000000e+00
9.000000e-01
1.000000e+00
9.000000e-01
1.000000e+00
9.000000e-01
1.000000e+00
9.000000e-01
1.000000e+00
9.000000e-01
1.000000e+00
9.000000e-01
1.000000e+00
9.000000e-01
1.000000e+00
9.000000e-01
1.000000e+00
9.000000e-01
1.000000e+00
9.000000e-01
1.000000e+00
9.000000e-01
1.000000e+00
9.000000e-01
1.000000e+00
9.000000e-01
1.000000e+00
9.000000e-01
1.000000e+00
9.000000e-01
1.000000e+00
9.000000e-01
1.000000e+00
9.000000e-01
1.000000e+00
9.000000e-01
1.000000e+00
9.000000e-01
1.000000e+00
9.000000e-01
1.000000e+00
9.000000e-01
1.000000e+00
9.000000e-01
1.000000e+00
9.000000e-01
1.000000e+00
9.000000e-01
1.000000e+00
9.000000e-01
1.000000e+00
9.000000e-01
1.000000e+00
9.000000e-01
1.000000e+00
9.000000e-01
1.000000e+00
9.000000e-01
1.000000e+00
9.000000e-01
1.000000e+00
9.000000e-01
1.000000e+00
9.000000e-01
1.000000e+00
9.000000e-01
1.000000e+00
9.000000e-01
1.000000e+00
9.000000e-01
1.000000e+00
9.000000e-01
1.000000e+00
9.000000e-01
1.000000e+00
9.000000e-01
1.000000e+00
9.000000e-01
1.000000e+00
9.000000e-01
1.000000e+00
9.000000e-01
1.000000e+00
9.000000e-01
1.000000e+00
9.000000e-01
1.000000e+00
9.000000e-01
1.000000e+00
9.000000e-01
1.000000e+00
9.000000e-01
1.000000e+00
9.000000e-01
1.000000e+00
9.000000e-01
1.000000e+00
9.000000e-01
1.000000e+00
9.000000e-01
1.000000e+00
9.000000e-01
1.000000e+00
9.000000e-01
1.000000e+00
9.000000e-01
1.000000e+00
9.000000e-01
1.000000e+00
9.000000e-01
1.000000e+00
9.000000e-01
1.000000e+00
9.000000e-01
1.000000e+00
9.000000e-01
1.000000e+00
9.000000e-01
1.000000e+00
9.000000e-01
1.000000e+00
9.000000e-01
1.000000e+00
9.000000e-01
1.000000e+00
9.000000e-01
1.000000e+00
9.000000e-01
1.000000e+00
9.000000e-01
1.000000e+00
9.000000e-01
1.000000e+00
9.000000e-01
1.000000e+00
9.000000e-01
1.000000e+00
9.000000e-01
1.000000e+00
9.000000e-01
1.000000e+00
9.000000e-01
1.000000e+00
9.000000e-01
1.000000e+00
</DataArray>
<DataArray type="Float32" Name="V5" format="ascii">
0.000000e+00
0.000000e+00
3.272490e-02
3.272490e-02
3.272490e-02
3.272490e-02
6.544980e-02
6.544980e-02
6.544980e-02
6.544980e-02
9.817480e-02
9.817480e-02
9.817480e-02
9.817480e-02
1.309000e-01
1.309000e-01
1.309000e-01
1.309000e-01
1.636250e-01
1.636250e-01
1.636250e-01
1.636250e-01
1.963500e-01
1.963500e-01
1.963500e-01
1.963500e-01
2.290740e-01
2.290740e-01
2.290740e-01
2.290740e-01
2.617990e-01
2.617990e-01
2.617990e-01
2.617990e-01
2.945240e-01
2.945240e-01
2.945240e-01
2.945240e-01
3.272490e-01
3.272490e-01
3.272490e-01
3.272490e-01
3.599740e-01
3.599740e-01
3.599740e-01
3.599740e-01
3.926990e-01
3.926990e-01
3.926990e-01
3.926990e-01
4.254240e-01
4.254240e-01
4.254240e-01
4.254240e-01
4.581490e-01
4.581490e-01
4.581490e-01
4.581490e-01
4.908740e-01
4.908740e-01
4.908740e-01
4.908740e-01
5.235990e-01
5.235990e-01
5.235990e-01
5.235990e-01
5.563240e-01
5.563240e-01
5.563240e-01
5.563240e-01
5.890490e-01
5.890490e-01
5.890490e-01
5.890490e-01
6.217740e-01
6.217740e-01
6.217740e-01
6.217740e-01
6.544980e-01
6.544980e-01
6.544980e-01
6.544980e-01
6.872230e-01
6.872230e-01
6.872230e-01
6.872230e-01
7.199480e-01
7.199480e-01
7.199480e-01
7.199480e-01
7.526730e-01
7.526730e-01
7.526730e-01
7.526730e-01
7.853980e-01
7.853980e-01
7.853980e-01
7.853980e-01
8.181230e-01
8.181230e-01
8.181230e-01
8.181230e-01
8.508480e-01
8.508480e-01
8.508480e-01
8.508480e-01
8.835730e-01
8.835730e-01
8.835730e-01
8.835730e-01
9.162980e-01
9.162980e-01
9.162980e-01
9.162980e-01
9.490230e-01
9.490230e-01
9.490230e-01
9.490230e-01
9.817480e-01
9.817480e-01
9.817480e-01
9.817480e-01
1.014470e+00
1.014470e+00
1.014470e+00
1.014470e+00
1.047200e+00
1.047200e+00
1.047200e+00
1.047200e+00
1.079920e+00
1.079920e+00
1.079920e+00
1.079920e+00
1.112650e+00
1.112650e+00
1.112650e+00
1.112650e+00
1.145370e+00
1.145370e+00
1.145370e+00
1.145370e+00
1.178100e+00
1.178100e+00
1.178100e+00
1.178100e+00
1.210820e+00
1.210820e+00
1.210820e+00
1.210820e+00
1.243550e+00
1.243550e+00
1.243550e+00
1.243550e+00
1.276270e+00
1.276270e+00
1.276270e+00
1.276270e+00
1.309000e+00
1.309000e+00
1.309000e+00
1.309000e+00
1.341720e+00
1.341720e+00
1.341720e+00
1.341720e+00
1.374450e+00
1.374450e+00
1.374450e+00
1.374450e+00
1.407170e+00
1.407170e+00
1.407170e+00
1.407170e+00
1.439900e+00
1.439900e+00
1.439900e+00
1.439900e+00
1.472620e+00
1.472620e+00
1.472620e+00
1.472620e+00
1.505350e+00
1.505350e+00
1.505350e+00
1.505350e+00
1.538070e+00
1.538070e+00
1.538070e+00
1.538070e+00
1.570800e+00
1.570800e+00
</DataArray>
</PointData>
</Piece></UnstructuredGrid>
</VTKFile>
