<?xml version="1.0"?>
<VTKFile type="UnstructuredGrid" version="0.1" byte_order="LittleEndian" compressor="vtkZLibDataCompressor">
<UnstructuredGrid>
<Piece NumberOfPoints="192" NumberOfCells="48">
<Points>
<DataArray type="Float32" NumberOfComponents="3" format="ascii">
0.000000e+00 8.495090e-01 0.000000e+00
0.000000e+00 9.500000e-01 0.000000e+00
3.080270e-02 8.495520e-01 0.000000e+00
3.126320e-02 9.500000e-01 0.000000e+00
3.080270e-02 8.495520e-01 0.000000e+00
3.126320e-02 9.500000e-01 0.000000e+00
6.149210e-02 8.496530e-01 0.000000e+00
6.262410e-02 9.500000e-01 0.000000e+00
6.149210e-02 8.496530e-01 0.000000e+00
6.262410e-02 9.500000e-01 0.000000e+00
9.194210e-02 8.497180e-01 0.000000e+00
9.416980e-02 9.500000e-01 0.000000e+00
9.194210e-02 8.497180e-01 0.000000e+00
9.416980e-02 9.500000e-01 0.000000e+00
1.220350e-01 8.495300e-01 0.000000e+00
1.259550e-01 9.500000e-01 0.000000e+00
1.220350e-01 8.495300e-01 0.000000e+00
1.259550e-01 9.500000e-01 0.000000e+00
1.518330e-01 8.488660e-01 0.000000e+00
1.579180e-01 9.496910e-01 0.000000e+00
1.518330e-01 8.488660e-01 0.000000e+00
1.579180e-01 9.496910e-01 0.000000e+00
1.812550e-01 8.474410e-01 0.000000e+00
1.900510e-01 9.480380e-01 0.000000e+00
1.812550e-01 8.474410e-01 0.000000e+00
1.900510e-01 9.480380e-01 0.000000e+00
2.103200e-01 8.450660e-01 0.000000e+00
2.223260e-01 9.451930e-01 0.000000e+00
2.103200e-01 8.450660e-01 0.000000e+00
2.223260e-01 9.451930e-01 0.000000e+00
2.390880e-01 8.416110e-01 0.000000e+00
2.546330e-01 9.410990e-01 0.000000e+00
2.390880e-01 8.416110e-01 0.000000e+00
2.546330e-01 9.410990e-01 0.000000e+00
2.675700e-01 8.370150e-01 0.000000e+00
2.868680e-01 9.356940e-01 0.000000e+00
2.675700e-01 8.370150e-01 0.000000e+00
2.868680e-01 9.356940e-01 0.000000e+00
2.957570e-01 8.312460e-01 0.000000e+00
3.189280e-01 9.289420e-01 0.000000e+00
2.957570e-01 8.312460e-01 0.000000e+00
3.189280e-01 9.289420e-01 0.000000e+00
3.236280e-01 8.242900e-01 0.000000e+00
3.507230e-01 9.208310e-01 0.000000e+00
3.236280e-01 8.242900e-01 0.000000e+00
3.507230e-01 9.208310e-01 0.000000e+00
3.511550e-01 8.161440e-01 0.000000e+00
3.821710e-01 9.113670e-01 0.000000e+00
3.511550e-01 8.161440e-01 0.000000e+00
3.821710e-01 9.113670e-01 0.000000e+00
3.783070e-01 8.068200e-01 0.000000e+00
4.131990e-01 9.005720e-01 0.000000e+00
3.783070e-01 8.068200e-01 0.000000e+00
4.131990e-01 9.005720e-01 0.000000e+00
4.050530e-01 7.963370e-01 0.000000e+00
4.437420e-01 8.884790e-01 0.000000e+00
4.050530e-01 7.963370e-01 0.000000e+00
4.437420e-01 8.884790e-01 0.000000e+00
4.313590e-01 7.847220e-01 0.000000e+00
4.737470e-01 8.751270e-01 0.000000e+00
4.313590e-01 7.847220e-01 0.000000e+00
4.737470e-01 8.751270e-01 0.000000e+00
4.571930e-01 7.720070e-01 0.000000e+00
5.031630e-01 8.605600e-01 0.000000e+00
4.571930e-01 7.720070e-01 0.000000e+00
5.031630e-01 8.605600e-01 0.000000e+00
4.825260e-01 7.582280e-01 0.000000e+00
5.319520e-01 8.448270e-01 0.000000e+00
4.825260e-01 7.582280e-01 0.000000e+00
5.319520e-01 8.448270e-01 0.000000e+00
5.073280e-01 7.434220e-01 0.000000e+00
5.600770e-01 8.279760e-01 0.000000e+00
5.073280e-01 7.434220e-01 0.000000e+00
5.600770e-01 8.279760e-01 0.000000e+00
5.315700e-01 7.276290e-01 0.000000e+00
5.875090e-01 8.100560e-01 0.000000e+00
5.315700e-01 7.276290e-01 0.000000e+00
5.875090e-01 8.100560e-01 0.000000e+00
5.552290e-01 7.108880e-01 0.000000e+00
6.142210e-01 7.911150e-01 0.000000e+00
5.552290e-01 7.108880e-01 0.000000e+00
6.142210e-01 7.911150e-01 0.000000e+00
5.782780e-01 6.932400e-01 0.000000e+00
6.401920e-01 7.712000e-01 0.000000e+00
5.782780e-01 6.932400e-01 0.000000e+00
6.401920e-01 7.712000e-01 0.000000e+00
6.006940e-01 6.747230e-01 0.000000e+00
6.654010e-01 7.503550e-01 0.000000e+00
6.006940e-01 6.747230e-01 0.000000e+00
6.654010e-01 7.503550e-01 0.000000e+00
6.224560e-01 6.553770e-01 0.000000e+00
6.898290e-01 7.286240e-01 0.000000e+00
6.224560e-01 6.553770e-01 0.000000e+00
6.898290e-01 7.286240e-01 0.000000e+00
6.435430e-01 6.352400e-01 0.000000e+00
7.134610e-01 7.060460e-01 0.000000e+00
6.435430e-01 6.352400e-01 0.000000e+00
7.134610e-01 7.060460e-01 0.000000e+00
6.639340e-01 6.143470e-01 0.000000e+00
7.362790e-01 6.826620e-01 0.000000e+00
6.639340e-01 6.143470e-01 0.000000e+00
7.362790e-01 6.826620e-01 0.000000e+00
6.836110e-01 5.927340e-01 0.000000e+00
7.582690e-01 6.585090e-01 0.000000e+00
6.836110e-01 5.927340e-01 0.000000e+00
7.582690e-01 6.585090e-01 0.000000e+00
7.025560e-01 5.704370e-01 0.000000e+00
7.794160e-01 6.336230e-01 0.000000e+00
7.025560e-01 5.704370e-01 0.000000e+00
7.794160e-01 6.336230e-01 0.000000e+00
7.207500e-01 5.474900e-01 0.000000e+00
7.997040e-01 6.080390e-01 0.000000e+00
7.207500e-01 5.474900e-01 0.000000e+00
7.997040e-01 6.080390e-01 0.000000e+00
7.381760e-01 5.239240e-01 0.000000e+00
8.191200e-01 5.817910e-01 0.000000e+00
7.381760e-01 5.239240e-01 0.000000e+00
8.191200e-01 5.817910e-01 0.000000e+00
7.548180e-01 4.997730e-01 0.000000e+00
8.376490e-01 5.549110e-01 0.000000e+00
7.548180e-01 4.997730e-01 0.000000e+00
8.376490e-01 5.549110e-01 0.000000e+00
7.706600e-01 4.750680e-01 0.000000e+00
8.552760e-01 5.274320e-01 0.000000e+00
7.706600e-01 4.750680e-01 0.000000e+00
8.552760e-01 5.274320e-01 0.000000e+00
7.856860e-01 4.498400e-01 0.000000e+00
8.719870e-01 4.993870e-01 0.000000e+00
7.856860e-01 4.498400e-01 0.000000e+00
8.719870e-01 4.993870e-01 0.000000e+00
7.998820e-01 4.241200e-01 0.000000e+00
8.877690e-01 4.708070e-01 0.000000e+00
7.998820e-01 4.241200e-01 0.000000e+00
8.877690e-01 4.708070e-01 0.000000e+00
8.132340e-01 3.979390e-01 0.000000e+00
9.026070e-01 4.417240e-01 0.000000e+00
8.132340e-01 3.979390e-01 0.000000e+00
9.026070e-01 4.417240e-01 0.000000e+00
8.257280e-01 3.713270e-01 0.000000e+00
9.164880e-01 4.121700e-01 0.000000e+00
8.257280e-01 3.713270e-01 0.000000e+00
9.164880e-01 4.121700e-01 0.000000e+00
8.373510e-01 3.443140e-01 0.000000e+00
9.293990e-01 3.821770e-01 0.000000e+00
8.373510e-01 3.443140e-01 0.000000e+00
9.293990e-01 3.821770e-01 0.000000e+00
8.480910e-01 3.169310e-01 0.000000e+00
9.413270e-01 3.517770e-01 0.000000e+00
8.480910e-01 3.169310e-01 0.000000e+00
9.413270e-01 3.517770e-01 0.000000e+00
8.579370e-01 2.892070e-01 0.000000e+00
9.522610e-01 3.210020e-01 0.000000e+00
8.579370e-01 2.892070e-01 0.000000e+00
9.522610e-01 3.210020e-01 0.000000e+00
8.668780e-01 2.611740e-01 0.000000e+00
9.621900e-01 2.898860e-01 0.000000e+00
8.668780e-01 2.611740e-01 0.000000e+00
9.621900e-01 2.898860e-01 0.000000e+00
8.749040e-01 2.328620e-01 0.000000e+00
9.711020e-01 2.584600e-01 0.000000e+00
8.749040e-01 2.328620e-01 0.000000e+00
9.711020e-01 2.584600e-01 0.000000e+00
8.820080e-01 2.043000e-01 0.000000e+00
9.789900e-01 2.267600e-01 0.000000e+00
8.820080e-01 2.043000e-01 0.000000e+00
9.789900e-01 2.267600e-01 0.000000e+00
8.881810e-01 1.755210e-01 0.000000e+00
9.858430e-01 1.948170e-01 0.000000e+00
8.881810e-01 1.755210e-01 0.000000e+00
9.858430e-01 1.948170e-01 0.000000e+00
8.934150e-01 1.465540e-01 0.000000e+00
9.916550e-01 1.626660e-01 0.000000e+00
8.934150e-01 1.465540e-01 0.000000e+00
9.916550e-01 1.626660e-01 0.000000e+00
8.977060e-01 1.174310e-01 0.000000e+00
9.964200e-01 1.303420e-01 0.000000e+00
8.977060e-01 1.174310e-01 0.000000e+00
9.964200e-01 1.303420e-01 0.000000e+00
9.010490e-01 8.818300e-02 0.000000e+00
1.000130e+00 9.787870e-02 0.000000e+00
9.010490e-01 8.818300e-02 0.000000e+00
1.000130e+00 9.787870e-02 0.000000e+00
9.034390e-01 5.884090e-02 0.000000e+00
1.002780e+00 6.531070e-02 0.000000e+00
9.034390e-01 5.884090e-02 0.000000e+00
1.002780e+00 6.531070e-02 0.000000e+00
9.048740e-01 2.943610e-02 0.000000e+00
1.004380e+00 3.267280e-02 0.000000e+00
9.048740e-01 2.943610e-02 0.000000e+00
1.004380e+00 3.267280e-02 0.000000e+00
9.053530e-01 4.433140e-12 0.000000e+00
1.004910e+00 4.920630e-12 0.000000e+00
</DataArray>
</Points>
<Cells>
<DataArray type="Int32" Name="connectivity" format="ascii">
0 1 3 2
4 5 7 6
8 9 11 10
12 13 15 14
16 17 19 18
20 21 23 22
24 25 27 26
28 29 31 30
32 33 35 34
36 37 39 38
40 41 43 42
44 45 47 46
48 49 51 50
52 53 55 54
56 57 59 58
60 61 63 62
64 65 67 66
68 69 71 70
72 73 75 74
76 77 79 78
80 81 83 82
84 85 87 86
88 89 91 90
92 93 95 94
96 97 99 98
100 101 103 102
104 105 107 106
108 109 111 110
112 113 115 114
116 117 119 118
120 121 123 122
124 125 127 126
128 129 131 130
132 133 135 134
136 137 139 138
140 141 143 142
144 145 147 146
148 149 151 150
152 153 155 154
156 157 159 158
160 161 163 162
164 165 167 166
168 169 171 170
172 173 175 174
176 177 179 178
180 181 183 182
184 185 187 186
188 189 191 190
</DataArray>
<DataArray type="Int32" Name="offsets" format="ascii">
4
8
12
16
20
24
28
32
36
40
44
48
52
56
60
64
68
72
76
80
84
88
92
96
100
104
108
112
116
120
124
128
132
136
140
144
148
152
156
160
164
168
172
176
180
184
188
192
</DataArray>
<DataArray type="UInt8" Name="types" format="ascii">
9
9
9
9
9
9
9
9
9
9
9
9
9
9
9
9
9
9
9
9
9
9
9
9
9
9
9
9
9
9
9
9
9
9
9
9
9
9
9
9
9
9
9
9
9
9
9
9
</DataArray>
</Cells>
<PointData>
<DataArray type="Float32" Name="V1" format="ascii">
8.358110e-01
-1.184910e+00
8.327260e-01
-1.187990e+00
8.017440e-01
-1.158180e+00
7.958170e-01
-1.164110e+00
7.215240e-01
-1.094760e+00
7.234070e-01
-1.092880e+00
5.852050e-01
-9.655270e-01
6.187190e-01
-9.320130e-01
3.960260e-01
-7.027210e-01
4.572690e-01
-6.414780e-01
2.694780e-01
-4.670030e-01
2.872540e-01
-4.492270e-01
1.632680e-01
-3.353060e-01
1.744570e-01
-3.241160e-01
7.890630e-02
-2.345040e-01
9.099140e-02
-2.224180e-01
1.725440e-02
-1.532460e-01
2.997710e-02
-1.405240e-01
-2.617350e-02
-8.797660e-02
-1.347980e-02
-7.528290e-02
-5.525860e-02
-3.626680e-02
-4.304200e-02
-2.405020e-02
-7.308470e-02
3.961700e-03
-6.163530e-02
1.541100e-02
-8.216880e-02
3.453270e-02
-7.167190e-02
4.502970e-02
-8.459840e-02
5.705370e-02
-7.515970e-02
6.649240e-02
-8.210450e-02
7.294230e-02
-7.376760e-02
8.127920e-02
-7.611050e-02
8.344440e-02
-6.887080e-02
9.068410e-02
-6.777130e-02
8.964550e-02
-6.158830e-02
9.582850e-02
-5.800800e-02
9.248150e-02
-5.281600e-02
9.767340e-02
-4.754030e-02
9.274860e-02
-4.325730e-02
9.703160e-02
-3.691630e-02
9.111520e-02
-3.345130e-02
9.458020e-02
-2.654100e-02
8.813370e-02
-2.379920e-02
9.087550e-02
-1.670100e-02
8.425350e-02
-1.458850e-02
8.636600e-02
-7.587080e-03
7.983390e-02
-6.013920e-03
8.140710e-02
6.856600e-04
7.515610e-02
1.803870e-03
7.627430e-02
8.061370e-03
7.043520e-02
8.801830e-03
7.117560e-02
1.452900e-02
6.583070e-02
1.496110e-02
6.626290e-02
2.011050e-02
6.145670e-02
2.029570e-02
6.164190e-02
2.485110e-02
5.738970e-02
2.484310e-02
5.738160e-02
2.881170e-02
5.367670e-02
2.865650e-02
5.352150e-02
3.206270e-02
5.034140e-02
3.179930e-02
5.007800e-02
3.467900e-02
4.738920e-02
3.434020e-02
4.705030e-02
3.673700e-02
4.481230e-02
3.634960e-02
4.442490e-02
3.831140e-02
4.259300e-02
3.789730e-02
4.217890e-02
3.947360e-02
4.070690e-02
3.905020e-02
4.028350e-02
4.029030e-02
3.912550e-02
3.987120e-02
3.870640e-02
4.082290e-02
3.781760e-02
4.041840e-02
3.741310e-02
4.112710e-02
3.675130e-02
4.074490e-02
3.636910e-02
4.125250e-02
3.589500e-02
4.089800e-02
3.554050e-02
4.124300e-02
3.521830e-02
4.091990e-02
3.489520e-02
4.113670e-02
3.469260e-02
4.084720e-02
3.440310e-02
4.096650e-02
3.429160e-02
4.071180e-02
3.403690e-02
4.076040e-02
3.399150e-02
4.054080e-02
3.377190e-02
4.054160e-02
3.377120e-02
4.035710e-02
3.358670e-02
4.032930e-02
3.361270e-02
4.017950e-02
3.346290e-02
4.013890e-02
3.350090e-02
4.002320e-02
3.338520e-02
3.998210e-02
3.342360e-02
3.990000e-02
3.334150e-02
3.986750e-02
3.337180e-02
3.981850e-02
3.332280e-02
3.980080e-02
3.333930e-02
3.978450e-02
3.332300e-02
</DataArray>
<DataArray type="Float32" Name="V2" format="ascii">
8.495090e-01
9.500000e-01
8.501050e-01
9.505140e-01
8.501050e-01
9.505140e-01
8.518560e-01
9.520620e-01
8.518560e-01
9.520620e-01
8.546380e-01
9.546560e-01
8.546380e-01
9.546560e-01
8.581910e-01
9.583130e-01
8.581910e-01
9.583130e-01
8.622610e-01
9.627300e-01
8.622610e-01
9.627300e-01
8.665190e-01
9.668990e-01
8.665190e-01
9.668990e-01
8.707490e-01
9.709870e-01
8.707490e-01
9.709870e-01
8.748140e-01
9.749360e-01
8.748140e-01
9.749360e-01
8.786450e-01
9.786770e-01
8.786450e-01
9.786770e-01
8.822000e-01
9.821590e-01
8.822000e-01
9.821590e-01
8.854560e-01
9.853530e-01
8.854560e-01
9.853530e-01
8.884000e-01
9.882440e-01
8.884000e-01
9.882440e-01
8.910330e-01
9.908290e-01
8.910330e-01
9.908290e-01
8.933630e-01
9.931150e-01
8.933630e-01
9.931150e-01
8.954040e-01
9.951150e-01
8.954040e-01
9.951150e-01
8.971740e-01
9.968480e-01
8.971740e-01
9.968480e-01
8.986950e-01
9.983350e-01
8.986950e-01
9.983350e-01
8.999890e-01
9.995990e-01
8.999890e-01
9.995990e-01
9.010790e-01
1.000660e+00
9.010790e-01
1.000660e+00
9.019870e-01
1.001550e+00
9.019870e-01
1.001550e+00
9.027370e-01
1.002280e+00
9.027370e-01
1.002280e+00
9.033490e-01
1.002880e+00
9.033490e-01
1.002880e+00
9.038430e-01
1.003360e+00
9.038430e-01
1.003360e+00
9.042360e-01
1.003740e+00
9.042360e-01
1.003740e+00
9.045440e-01
1.004050e+00
9.045440e-01
1.004050e+00
9.047830e-01
1.004280e+00
9.047830e-01
1.004280e+00
9.049650e-01
1.004460e+00
9.049650e-01
1.004460e+00
9.051000e-01
1.004600e+00
9.051000e-01
1.004600e+00
9.051980e-01
1.004700e+00
9.051980e-01
1.004700e+00
9.052670e-01
1.004770e+00
9.052670e-01
1.004770e+00
9.053140e-01
1.004820e+00
9.053140e-01
1.004820e+00
9.053440e-01
1.004860e+00
9.053440e-01
1.004860e+00
9.053620e-01
1.004880e+00
9.053620e-01
1.004880e+00
9.053710e-01
1.004890e+00
9.053710e-01
1.004890e+00
9.053750e-01
1.004900e+00
9.053750e-01
1.004900e+00
9.053740e-01
1.004910e+00
9.053740e-01
1.004910e+00
9.053720e-01
1.004910e+00
9.053720e-01
1.004910e+00
9.053690e-01
1.004910e+00
9.053690e-01
1.004910e+00
9.053650e-01
1.004910e+00
9.053650e-01
1.004910e+00
9.053620e-01
1.004910e+00
9.053620e-01
1.004910e+00
9.053590e-01
1.004910e+00
9.053590e-01
1.004910e+00
9.053570e-01
1.004910e+00
9.053570e-01
1.004910e+00
9.053550e-01
1.004910e+00
9.053550e-01
1.004910e+00
9.053540e-01
1.004910e+00
9.053540e-01
1.004910e+00
9.053530e-01
1.004910e+00
9.053530e-01
1.004910e+00
9.053530e-01
1.004910e+00
9.053530e-01
1.004910e+00
9.053530e-01
1.004910e+00
9.053530e-01
1.004910e+00
9.053530e-01
1.004910e+00
</DataArray>
<DataArray type="Float32" Name="V3" format="ascii">
0.000000e+00
0.000000e+00
2.989610e-03
1.633370e-04
2.989610e-03
1.633370e-04
5.790490e-03
3.570610e-04
5.790490e-03
3.570610e-04
8.212490e-03
6.001080e-04
8.212490e-03
6.001080e-04
1.010530e-02
8.772460e-04
1.010530e-02
8.772460e-04
1.152820e-02
1.108090e-03
1.152820e-02
1.108090e-03
1.244510e-02
1.446570e-03
1.244510e-02
1.446570e-03
1.293180e-02
1.886850e-03
1.293180e-02
1.886850e-03
1.311620e-02
2.382510e-03
1.311620e-02
2.382510e-03
1.307580e-02
2.897560e-03
1.307580e-02
2.897560e-03
1.286590e-02
3.404030e-03
1.286590e-02
3.404030e-03
1.252920e-02
3.881350e-03
1.252920e-02
3.881350e-03
1.210020e-02
4.315010e-03
1.210020e-02
4.315010e-03
1.160640e-02
4.695280e-03
1.160640e-02
4.695280e-03
1.107010e-02
5.016280e-03
1.107010e-02
5.016280e-03
1.050910e-02
5.275290e-03
1.050910e-02
5.275290e-03
9.937450e-03
5.472130e-03
9.937450e-03
5.472130e-03
9.366360e-03
5.608610e-03
9.366360e-03
5.608610e-03
8.804330e-03
5.688050e-03
8.804330e-03
5.688050e-03
8.257740e-03
5.714820e-03
8.257740e-03
5.714820e-03
7.731210e-03
5.693970e-03
7.731210e-03
5.693970e-03
7.227870e-03
5.630920e-03
7.227870e-03
5.630920e-03
6.749630e-03
5.531160e-03
6.749630e-03
5.531160e-03
6.297400e-03
5.400070e-03
6.297400e-03
5.400070e-03
5.871320e-03
5.242750e-03
5.871320e-03
5.242750e-03
5.470870e-03
5.063960e-03
5.470870e-03
5.063960e-03
5.095070e-03
4.867970e-03
5.095070e-03
4.867970e-03
4.742570e-03
4.658620e-03
4.742570e-03
4.658620e-03
4.411800e-03
4.439230e-03
4.411800e-03
4.439230e-03
4.101020e-03
4.212650e-03
4.101020e-03
4.212650e-03
3.808410e-03
3.981310e-03
3.808410e-03
3.981310e-03
3.532140e-03
3.747170e-03
3.532140e-03
3.747170e-03
3.270400e-03
3.511860e-03
3.270400e-03
3.511860e-03
3.021460e-03
3.276630e-03
3.021460e-03
3.276630e-03
2.783680e-03
3.042470e-03
2.783680e-03
3.042470e-03
2.555530e-03
2.810070e-03
2.555530e-03
2.810070e-03
2.335600e-03
2.579950e-03
2.335600e-03
2.579950e-03
2.122650e-03
2.352390e-03
2.122650e-03
2.352390e-03
1.915520e-03
2.127570e-03
1.915520e-03
2.127570e-03
1.713230e-03
1.905520e-03
1.713230e-03
1.905520e-03
1.514910e-03
1.686150e-03
1.514910e-03
1.686150e-03
1.319790e-03
1.469330e-03
1.319790e-03
1.469330e-03
1.127230e-03
1.254840e-03
1.127230e-03
1.254840e-03
9.366830e-04
1.042410e-03
9.366830e-04
1.042410e-03
7.476810e-04
8.317480e-04
7.476810e-04
8.317480e-04
5.598300e-04
6.225280e-04
5.598300e-04
6.225280e-04
3.727910e-04
4.144040e-04
3.727910e-04
4.144040e-04
1.862700e-04
2.070160e-04
1.862700e-04
2.070160e-04
0.000000e+00
0.000000e+00
</DataArray>
<DataArray type="Float32" Name="V4" format="ascii">
9.000000e-01
1.000000e+00
9.000000e-01
1.000000e+00
9.000000e-01
1.000000e+00
9.000000e-01
1.000000e+00
9.000000e-01
1.000000e+00
9.000000e-01
1.000000e+00
9.000000e-01
1.000000e+00
9.000000e-01
1.000000e+00
9.000000e-01
1.000000e+00
9.000000e-01
1.000000e+00
9.000000e-01
1.000000e+00
9.000000e-01
1.000000e+00
9.000000e-01
1.000000e+00
9.000000e-01
1.000000e+00
9.000000e-01
1.000000e+00
9.000000e-01
1.000000e+00
9.000000e-01
1.000000e+00
9.000000e-01
1.000000e+00
9.000000e-01
1.000000e+00
9.000000e-01
1.000000e+00
9.000000e-01
1.000000e+00
9.000000e-01
1.000000e+00
9.000000e-01
1.000000e+00
9.000000e-01
1.000000e+00
9.000000e-01
1.000000e+00
9.000000e-01
1.000000e+00
9.000000e-01
1.000000e+00
9.000000e-01
1.000000e+00
9.000000e-01
1.000000e+00
9.000000e-01
1.000000e+00
9.000000e-01
1.000000e+00
9.000000e-01
1.000000e+00
9.000000e-01
1.000000e+00
9.000000e-01
1.000000e+00
9.000000e-01
1.000000e+00
9.000000e-01
1.000000e+00
9.000000e-01
1.000000e+00
9.000000e-01
1.000000e+00
9.000000e-01
1.000000e+00
9.000000e-01
1.000000e+00
9.000000e-01
1.000000e+00
9.000000e-01
1.000000e+00
9.000000e-01
1.000000e+00
9.000000e-01
1.000000e+00
9.000000e-01
1.000000e+00
9.000000e-01
1.000000e+00
9.000000e-01
1.000000e+00
9.000000e-01
1.000000e+00
9.000000e-01
1.000000e+00
9.000000e-01
1.000000e+00
9.000000e-01
1.000000e+00
9.000000e-01
1.000000e+00
9.000000e-01
1.000000e+00
9.000000e-01
1.000000e+00
9.000000e-01
1.000000e+00
9.000000e-01
1.000000e+00
9.000000e-01
1.000000e+00
9.000000e-01
1.000000e+00
9.000000e-01
1.000000e+00
9.000000e-01
1.000000e+00
9.000000e-01
1.000000e+00
9.000000e-01
1.000000e+00
9.000000e-01
1.000000e+00
9.000000e-01
1.000000e+00
9.000000e-01
1.000000e+00
9.000000e-01
1.000000e+00
9.000000e-01
1.000000e+00
9.000000e-01
1.000000e+00
9.000000e-01
1.000000e+00
9.000000e-01
1.000000e+00
9.000000e-01
1.000000e+00
9.000000e-01
1.000000e+00
9.000000e-01
1.000000e+00
9.000000e-01
1.000000e+00
9.000000e-01
1.000000e+00
9.000000e-01
1.000000e+00
9.000000e-01
1.000000e+00
9.000000e-01
1.000000e+00
9.000000e-01
1.000000e+00
9.000000e-01
1.000000e+00
9.000000e-01
1.000000e+00
9.000000e-01
1.000000e+00
9.000000e-01
1.000000e+00
9.000000e-01
1.000000e+00
9.000000e-01
1.000000e+00
9.000000e-01
1.000000e+00
9.000000e-01
1.000000e+00
9.000000e-01
1.000000e+00
9.000000e-01
1.000000e+00
9.000000e-01
1.000000e+00
9.000000e-01
1.000000e+00
9.000000e-01
1.000000e+00
9.000000e-01
1.000000e+00
9.000000e-01
1.000000e+00
9.000000e-01
1.000000e+00
9.000000e-01
1.000000e+00
</DataArray>
<DataArray type="Float32" Name="V5" format="ascii">
0.000000e+00
0.000000e+00
3.272490e-02
3.272490e-02
3.272490e-02
3.272490e-02
6.544980e-02
6.544980e-02
6.544980e-02
6.544980e-02
9.817480e-02
9.817480e-02
9.817480e-02
9.817480e-02
1.309000e-01
1.309000e-01
1.309000e-01
1.309000e-01
1.636250e-01
1.636250e-01
1.636250e-01
1.636250e-01
1.963500e-01
1.963500e-01
1.963500e-01
1.963500e-01
2.290740e-01
2.290740e-01
2.290740e-01
2.290740e-01
2.617990e-01
2.617990e-01
2.617990e-01
2.617990e-01
2.945240e-01
2.945240e-01
2.945240e-01
2.945240e-01
3.272490e-01
3.272490e-01
3.272490e-01
3.272490e-01
3.599740e-01
3.599740e-01
3.599740e-01
3.599740e-01
3.926990e-01
3.926990e-01
3.926990e-01
3.926990e-01
4.254240e-01
4.254240e-01
4.254240e-01
4.254240e-01
4.581490e-01
4.581490e-01
4.581490e-01
4.581490e-01
4.908740e-01
4.908740e-01
4.908740e-01
4.908740e-01
5.235990e-01
5.235990e-01
5.235990e-01
5.235990e-01
5.563240e-01
5.563240e-01
5.563240e-01
5.563240e-01
5.890490e-01
5.890490e-01
5.890490e-01
5.890490e-01
6.217740e-01
6.217740e-01
6.217740e-01
6.217740e-01
6.544980e-01
6.544980e-01
6.544980e-01
6.544980e-01
6.872230e-01
6.872230e-01
6.872230e-01
6.872230e-01
7.199480e-01
7.199480e-01
7.199480e-01
7.199480e-01
7.526730e-01
7.526730e-01
7.526730e-01
7.526730e-01
7.853980e-01
7.853980e-01
7.853980e-01
7.853980e-01
8.181230e-01
8.181230e-01
8.181230e-01
8.181230e-01
8.508480e-01
8.508480e-01
8.508480e-01
8.508480e-01
8.835730e-01
8.835730e-01
8.835730e-01
8.835730e-01
9.162980e-01
9.162980e-01
9.162980e-01
9.162980e-01
9.490230e-01
9.490230e-01
9.490230e-01
9.490230e-01
9.817480e-01
9.817480e-01
9.817480e-01
9.817480e-01
1.014470e+00
1.014470e+00
1.014470e+00
1.014470e+00
1.047200e+00
1.047200e+00
1.047200e+00
1.047200e+00
1.079920e+00
1.079920e+00
1.079920e+00
1.079920e+00
1.112650e+00
1.112650e+00
1.112650e+00
1.112650e+00
1.145370e+00
1.145370e+00
1.145370e+00
1.145370e+00
1.178100e+00
1.178100e+00
1.178100e+00
1.178100e+00
1.210820e+00
1.210820e+00
1.210820e+00
1.210820e+00
1.243550e+00
1.243550e+00
1.243550e+00
1.243550e+00
1.276270e+00
1.276270e+00
1.276270e+00
1.276270e+00
1.309000e+00
1.309000e+00
1.309000e+00
1.309000e+00
1.341720e+00
1.341720e+00
1.341720e+00
1.341720e+00
1.374450e+00
1.374450e+00
1.374450e+00
1.374450e+00
1.407170e+00
1.407170e+00
1.407170e+00
1.407170e+00
1.439900e+00
1.439900e+00
1.439900e+00
1.439900e+00
1.472620e+00
1.472620e+00
1.472620e+00
1.472620e+00
1.505350e+00
1.505350e+00
1.505350e+00
1.505350e+00
1.538070e+00
1.538070e+00
1.538070e+00
1.538070e+00
1.570800e+00
1.570800e+00
</DataArray>
</PointData>
</Piece></UnstructuredGrid>
</VTKFile>
