<?xml version="1.0"?>
<VTKFile type="UnstructuredGrid" version="0.1" byte_order="LittleEndian" compressor="vtkZLibDataCompressor">
<UnstructuredGrid>
<Piece NumberOfPoints="192" NumberOfCells="48">
<Points>
<DataArray type="Float32" NumberOfComponents="3" format="ascii">
0.000000e+00 3.565100e-01 0.000000e+00
0.000000e+00 3.900000e-01 0.000000e+00
5.374870e-02 3.565150e-01 0.000000e+00
5.374320e-02 3.900000e-01 0.000000e+00
5.374870e-02 3.565150e-01 0.000000e+00
5.374320e-02 3.900000e-01 0.000000e+00
1.074950e-01 3.565300e-01 0.000000e+00
1.074840e-01 3.900000e-01 0.000000e+00
1.074950e-01 3.565300e-01 0.000000e+00
1.074840e-01 3.900000e-01 0.000000e+00
1.612370e-01 3.565550e-01 0.000000e+00
1.612210e-01 3.900000e-01 0.000000e+00
1.612370e-01 3.565550e-01 0.000000e+00
1.612210e-01 3.900000e-01 0.000000e+00
2.149720e-01 3.565900e-01 0.000000e+00
2.149500e-01 3.900000e-01 0.000000e+00
2.149720e-01 3.565900e-01 0.000000e+00
2.149500e-01 3.900000e-01 0.000000e+00
2.686970e-01 3.566340e-01 0.000000e+00
2.686690e-01 3.900000e-01 0.000000e+00
2.686970e-01 3.566340e-01 0.000000e+00
2.686690e-01 3.900000e-01 0.000000e+00
3.224100e-01 3.566890e-01 0.000000e+00
3.223770e-01 3.900000e-01 0.000000e+00
3.224100e-01 3.566890e-01 0.000000e+00
3.223770e-01 3.900000e-01 0.000000e+00
3.761060e-01 3.567530e-01 0.000000e+00
3.760670e-01 3.900000e-01 0.000000e+00
3.761060e-01 3.567530e-01 0.000000e+00
3.760670e-01 3.900000e-01 0.000000e+00
4.297860e-01 3.568270e-01 0.000000e+00
4.297420e-01 3.900000e-01 0.000000e+00
4.297860e-01 3.568270e-01 0.000000e+00
4.297420e-01 3.900000e-01 0.000000e+00
4.834460e-01 3.569100e-01 0.000000e+00
4.833970e-01 3.900000e-01 0.000000e+00
4.834460e-01 3.569100e-01 0.000000e+00
4.833970e-01 3.900000e-01 0.000000e+00
5.370830e-01 3.570030e-01 0.000000e+00
5.370290e-01 3.900000e-01 0.000000e+00
5.370830e-01 3.570030e-01 0.000000e+00
5.370290e-01 3.900000e-01 0.000000e+00
5.906940e-01 3.571050e-01 0.000000e+00
5.906340e-01 3.900000e-01 0.000000e+00
5.906940e-01 3.571050e-01 0.000000e+00
5.906340e-01 3.900000e-01 0.000000e+00
6.442750e-01 3.572160e-01 0.000000e+00
6.442100e-01 3.900000e-01 0.000000e+00
6.442750e-01 3.572160e-01 0.000000e+00
6.442100e-01 3.900000e-01 0.000000e+00
6.978230e-01 3.573360e-01 0.000000e+00
6.977530e-01 3.900000e-01 0.000000e+00
6.978230e-01 3.573360e-01 0.000000e+00
6.977530e-01 3.900000e-01 0.000000e+00
7.513350e-01 3.574650e-01 0.000000e+00
7.512600e-01 3.900000e-01 0.000000e+00
7.513350e-01 3.574650e-01 0.000000e+00
7.512600e-01 3.900000e-01 0.000000e+00
8.048070e-01 3.576020e-01 0.000000e+00
8.047270e-01 3.900000e-01 0.000000e+00
8.048070e-01 3.576020e-01 0.000000e+00
8.047270e-01 3.900000e-01 0.000000e+00
8.582350e-01 3.577480e-01 0.000000e+00
8.581500e-01 3.900000e-01 0.000000e+00
8.582350e-01 3.577480e-01 0.000000e+00
8.581500e-01 3.900000e-01 0.000000e+00
9.116150e-01 3.579020e-01 0.000000e+00
9.115250e-01 3.900000e-01 0.000000e+00
9.116150e-01 3.579020e-01 0.000000e+00
9.115250e-01 3.900000e-01 0.000000e+00
9.649420e-01 3.580630e-01 0.000000e+00
9.648480e-01 3.900000e-01 0.000000e+00
9.649420e-01 3.580630e-01 0.000000e+00
9.648480e-01 3.900000e-01 0.000000e+00
1.018210e+00 3.582330e-01 0.000000e+00
1.018110e+00 3.900000e-01 0.000000e+00
1.018210e+00 3.582330e-01 0.000000e+00
1.018110e+00 3.900000e-01 0.000000e+00
1.071420e+00 3.584100e-01 0.000000e+00
1.071310e+00 3.900000e-01 0.000000e+00
1.071420e+00 3.584100e-01 0.000000e+00
1.071310e+00 3.900000e-01 0.000000e+00
1.124560e+00 3.585940e-01 0.000000e+00
1.124450e+00 3.900000e-01 0.000000e+00
1.124560e+00 3.585940e-01 0.000000e+00
1.124450e+00 3.900000e-01 0.000000e+00
1.177630e+00 3.587860e-01 0.000000e+00
1.177510e+00 3.900000e-01 0.000000e+00
1.177630e+00 3.587860e-01 0.000000e+00
1.177510e+00 3.900000e-01 0.000000e+00
1.230620e+00 3.589840e-01 0.000000e+00
1.230500e+00 3.900000e-01 0.000000e+00
1.230620e+00 3.589840e-01 0.000000e+00
1.230500e+00 3.900000e-01 0.000000e+00
1.283520e+00 3.591880e-01 0.000000e+00
1.283400e+00 3.900000e-01 0.000000e+00
1.283520e+00 3.591880e-01 0.000000e+00
1.283400e+00 3.900000e-01 0.000000e+00
1.336330e+00 3.593990e-01 0.000000e+00
1.336210e+00 3.900000e-01 0.000000e+00
1.336330e+00 3.593990e-01 0.000000e+00
1.336210e+00 3.900000e-01 0.000000e+00
1.389050e+00 3.596150e-01 0.000000e+00
1.388920e+00 3.900000e-01 0.000000e+00
1.389050e+00 3.596150e-01 0.000000e+00
1.388920e+00 3.900000e-01 0.000000e+00
1.441660e+00 3.598370e-01 0.000000e+00
1.441530e+00 3.900000e-01 0.000000e+00
1.441660e+00 3.598370e-01 0.000000e+00
1.441530e+00 3.900000e-01 0.000000e+00
1.494160e+00 3.600650e-01 0.000000e+00
1.494020e+00 3.900000e-01 0.000000e+00
1.494160e+00 3.600650e-01 0.000000e+00
1.494020e+00 3.900000e-01 0.000000e+00
1.546530e+00 3.602970e-01 0.000000e+00
1.546400e+00 3.900000e-01 0.000000e+00
1.546530e+00 3.602970e-01 0.000000e+00
1.546400e+00 3.900000e-01 0.000000e+00
1.598780e+00 3.605350e-01 0.000000e+00
1.598640e+00 3.900000e-01 0.000000e+00
1.598780e+00 3.605350e-01 0.000000e+00
1.598640e+00 3.900000e-01 0.000000e+00
1.650880e+00 3.607770e-01 0.000000e+00
1.650750e+00 3.900000e-01 0.000000e+00
1.650880e+00 3.607770e-01 0.000000e+00
1.650750e+00 3.900000e-01 0.000000e+00
1.702830e+00 3.610230e-01 0.000000e+00
1.702750e+00 3.900000e-01 0.000000e+00
1.702830e+00 3.610230e-01 0.000000e+00
1.702750e+00 3.900000e-01 0.000000e+00
1.754570e+00 3.612740e-01 0.000000e+00
1.754610e+00 3.900000e-01 0.000000e+00
1.754570e+00 3.612740e-01 0.000000e+00
1.754610e+00 3.900000e-01 0.000000e+00
1.806060e+00 3.615320e-01 0.000000e+00
1.806450e+00 3.900000e-01 0.000000e+00
1.806060e+00 3.615320e-01 0.000000e+00
1.806450e+00 3.900000e-01 0.000000e+00
1.857050e+00 3.617910e-01 0.000000e+00
1.858430e+00 3.900000e-01 0.000000e+00
1.857050e+00 3.617910e-01 0.000000e+00
1.858430e+00 3.900000e-01 0.000000e+00
1.907060e+00 3.618910e-01 0.000000e+00
1.910790e+00 3.900000e-01 0.000000e+00
1.907060e+00 3.618910e-01 0.000000e+00
1.910790e+00 3.900000e-01 0.000000e+00
1.955610e+00 3.593660e-01 0.000000e+00
1.961090e+00 3.878070e-01 0.000000e+00
1.955610e+00 3.593660e-01 0.000000e+00
1.961090e+00 3.878070e-01 0.000000e+00
2.002080e+00 3.501890e-01 0.000000e+00
2.010360e+00 3.775490e-01 0.000000e+00
2.002080e+00 3.501890e-01 0.000000e+00
2.010360e+00 3.775490e-01 0.000000e+00
2.046250e+00 3.344480e-01 0.000000e+00
2.057840e+00 3.602830e-01 0.000000e+00
2.046250e+00 3.344480e-01 0.000000e+00
2.057840e+00 3.602830e-01 0.000000e+00
2.087580e+00 3.126950e-01 0.000000e+00
2.102380e+00 3.365430e-01 0.000000e+00
2.087580e+00 3.126950e-01 0.000000e+00
2.102380e+00 3.365430e-01 0.000000e+00
2.125420e+00 2.855400e-01 0.000000e+00
2.143130e+00 3.070300e-01 0.000000e+00
2.125420e+00 2.855400e-01 0.000000e+00
2.143130e+00 3.070300e-01 0.000000e+00
2.159240e+00 2.536100e-01 0.000000e+00
2.179490e+00 2.724550e-01 0.000000e+00
2.159240e+00 2.536100e-01 0.000000e+00
2.179490e+00 2.724550e-01 0.000000e+00
2.188580e+00 2.175950e-01 0.000000e+00
2.210950e+00 2.335770e-01 0.000000e+00
2.188580e+00 2.175950e-01 0.000000e+00
2.210950e+00 2.335770e-01 0.000000e+00
2.213060e+00 1.781560e-01 0.000000e+00
2.237150e+00 1.911120e-01 0.000000e+00
2.213060e+00 1.781560e-01 0.000000e+00
2.237150e+00 1.911120e-01 0.000000e+00
2.232380e+00 1.360010e-01 0.000000e+00
2.257800e+00 1.458140e-01 0.000000e+00
2.232380e+00 1.360010e-01 0.000000e+00
2.257800e+00 1.458140e-01 0.000000e+00
2.246330e+00 9.179260e-02 0.000000e+00
2.272690e+00 9.837730e-02 0.000000e+00
2.246330e+00 9.179260e-02 0.000000e+00
2.272690e+00 9.837730e-02 0.000000e+00
2.254760e+00 4.623850e-02 0.000000e+00
2.281680e+00 4.954400e-02 0.000000e+00
2.254760e+00 4.623850e-02 0.000000e+00
2.281680e+00 4.954400e-02 0.000000e+00
2.257580e+00 -8.292550e-06 0.000000e+00
2.284690e+00 -8.392130e-06 0.000000e+00
</DataArray>
</Points>
<Cells>
<DataArray type="Int32" Name="connectivity" format="ascii">
0 1 3 2
4 5 7 6
8 9 11 10
12 13 15 14
16 17 19 18
20 21 23 22
24 25 27 26
28 29 31 30
32 33 35 34
36 37 39 38
40 41 43 42
44 45 47 46
48 49 51 50
52 53 55 54
56 57 59 58
60 61 63 62
64 65 67 66
68 69 71 70
72 73 75 74
76 77 79 78
80 81 83 82
84 85 87 86
88 89 91 90
92 93 95 94
96 97 99 98
100 101 103 102
104 105 107 106
108 109 111 110
112 113 115 114
116 117 119 118
120 121 123 122
124 125 127 126
128 129 131 130
132 133 135 134
136 137 139 138
140 141 143 142
144 145 147 146
148 149 151 150
152 153 155 154
156 157 159 158
160 161 163 162
164 165 167 166
168 169 171 170
172 173 175 174
176 177 179 178
180 181 183 182
184 185 187 186
188 189 191 190
</DataArray>
<DataArray type="Int32" Name="offsets" format="ascii">
4
8
12
16
20
24
28
32
36
40
44
48
52
56
60
64
68
72
76
80
84
88
92
96
100
104
108
112
116
120
124
128
132
136
140
144
148
152
156
160
164
168
172
176
180
184
188
192
</DataArray>
<DataArray type="UInt8" Name="types" format="ascii">
9
9
9
9
9
9
9
9
9
9
9
9
9
9
9
9
9
9
9
9
9
9
9
9
9
9
9
9
9
9
9
9
9
9
9
9
9
9
9
9
9
9
9
9
9
9
9
9
</DataArray>
</Cells>
<PointData>
<DataArray type="Float32" Name="V1" format="ascii">
1.822420e+01
1.135940e+01
1.822990e+01
1.136510e+01
1.823220e+01
1.136370e+01
1.824590e+01
1.137750e+01
1.825020e+01
1.137470e+01
1.827380e+01
1.139820e+01
1.827990e+01
1.139360e+01
1.831310e+01
1.142680e+01
1.832110e+01
1.142050e+01
1.836400e+01
1.146340e+01
1.837390e+01
1.145530e+01
1.842650e+01
1.150800e+01
1.843830e+01
1.149820e+01
1.850080e+01
1.156070e+01
1.851460e+01
1.154920e+01
1.858680e+01
1.162150e+01
1.860260e+01
1.160830e+01
1.868480e+01
1.169050e+01
1.870250e+01
1.167560e+01
1.879480e+01
1.176780e+01
1.881460e+01
1.175110e+01
1.891690e+01
1.185350e+01
1.893880e+01
1.183510e+01
1.905140e+01
1.194770e+01
1.907530e+01
1.192740e+01
1.919830e+01
1.205040e+01
1.922440e+01
1.202840e+01
1.935790e+01
1.216190e+01
1.938610e+01
1.213800e+01
1.953030e+01
1.228220e+01
1.956070e+01
1.225640e+01
1.971580e+01
1.241150e+01
1.974840e+01
1.238380e+01
1.991450e+01
1.254990e+01
1.994950e+01
1.252030e+01
2.012680e+01
1.269760e+01
2.016410e+01
1.266600e+01
2.035280e+01
1.285480e+01
2.039250e+01
1.282120e+01
2.059290e+01
1.302170e+01
2.063500e+01
1.298600e+01
2.084740e+01
1.319840e+01
2.089190e+01
1.316060e+01
2.111650e+01
1.338520e+01
2.116360e+01
1.334530e+01
2.140060e+01
1.358230e+01
2.145030e+01
1.354020e+01
2.170000e+01
1.379000e+01
2.175240e+01
1.374560e+01
2.201520e+01
1.400840e+01
2.207030e+01
1.396180e+01
2.234650e+01
1.423800e+01
2.240430e+01
1.418900e+01
2.269430e+01
1.447900e+01
2.275490e+01
1.442770e+01
2.305900e+01
1.473170e+01
2.312230e+01
1.467820e+01
2.344080e+01
1.499680e+01
2.350640e+01
1.494140e+01
2.383990e+01
1.527490e+01
2.390620e+01
1.521890e+01
2.425510e+01
1.556790e+01
2.431770e+01
1.551520e+01
2.468290e+01
1.588040e+01
2.472820e+01
1.584240e+01
2.511070e+01
1.622490e+01
2.509960e+01
1.623520e+01
2.550240e+01
1.663810e+01
2.532260e+01
1.679250e+01
2.575260e+01
1.722250e+01
2.511720e+01
1.777600e+01
2.556870e+01
1.822750e+01
2.426590e+01
1.932220e+01
2.454490e+01
1.960120e+01
2.373610e+01
2.036650e+01
2.419280e+01
2.082320e+01
2.393200e+01
2.103910e+01
2.436510e+01
2.147230e+01
2.432230e+01
2.150800e+01
2.473190e+01
2.191770e+01
2.476550e+01
2.188930e+01
2.514490e+01
2.226870e+01
2.520180e+01
2.222070e+01
2.554430e+01
2.256310e+01
2.560420e+01
2.251260e+01
2.590360e+01
2.281200e+01
2.595830e+01
2.276590e+01
2.620960e+01
2.301720e+01
2.625560e+01
2.297860e+01
2.645500e+01
2.317800e+01
2.649030e+01
2.314820e+01
2.663480e+01
2.329260e+01
2.665880e+01
2.327240e+01
2.674630e+01
2.335990e+01
2.675840e+01
2.334980e+01
2.678770e+01
2.337900e+01
</DataArray>
<DataArray type="Float32" Name="V2" format="ascii">
3.565100e-01
3.900000e-01
3.580830e-01
3.915500e-01
3.580830e-01
3.915500e-01
3.627970e-01
3.961950e-01
3.627970e-01
3.961950e-01
3.706420e-01
4.039240e-01
3.706420e-01
4.039240e-01
3.815990e-01
4.147200e-01
3.815990e-01
4.147200e-01
3.956410e-01
4.285560e-01
3.956410e-01
4.285560e-01
4.127340e-01
4.453990e-01
4.127340e-01
4.453990e-01
4.328380e-01
4.652080e-01
4.328380e-01
4.652080e-01
4.559050e-01
4.879370e-01
4.559050e-01
4.879370e-01
4.818790e-01
5.135290e-01
4.818790e-01
5.135290e-01
5.106960e-01
5.419250e-01
5.106960e-01
5.419250e-01
5.422880e-01
5.730540e-01
5.422880e-01
5.730540e-01
5.765780e-01
6.068420e-01
5.765780e-01
6.068420e-01
6.134810e-01
6.432050e-01
6.134810e-01
6.432050e-01
6.529070e-01
6.820540e-01
6.529070e-01
6.820540e-01
6.947600e-01
7.232950e-01
6.947600e-01
7.232950e-01
7.389360e-01
7.668250e-01
7.389360e-01
7.668250e-01
7.853250e-01
8.125360e-01
7.853250e-01
8.125360e-01
8.338120e-01
8.603140e-01
8.338120e-01
8.603140e-01
8.842740e-01
9.100390e-01
8.842740e-01
9.100390e-01
9.365840e-01
9.615830e-01
9.365840e-01
9.615830e-01
9.906090e-01
1.014820e+00
9.906090e-01
1.014820e+00
1.046210e+00
1.069610e+00
1.046210e+00
1.069610e+00
1.103250e+00
1.125810e+00
1.103250e+00
1.125810e+00
1.161570e+00
1.183270e+00
1.161570e+00
1.183270e+00
1.221020e+00
1.241850e+00
1.221020e+00
1.241850e+00
1.281450e+00
1.301390e+00
1.281450e+00
1.301390e+00
1.342700e+00
1.361730e+00
1.342700e+00
1.361730e+00
1.404590e+00
1.422710e+00
1.404590e+00
1.422710e+00
1.466960e+00
1.484150e+00
1.466960e+00
1.484150e+00
1.529640e+00
1.545900e+00
1.529640e+00
1.545900e+00
1.592440e+00
1.607770e+00
1.592440e+00
1.607770e+00
1.655210e+00
1.669620e+00
1.655210e+00
1.669620e+00
1.717700e+00
1.731270e+00
1.717700e+00
1.731270e+00
1.779710e+00
1.792650e+00
1.779710e+00
1.792650e+00
1.840830e+00
1.853730e+00
1.840830e+00
1.853730e+00
1.900380e+00
1.914590e+00
1.900380e+00
1.914590e+00
1.956850e+00
1.972000e+00
1.956850e+00
1.972000e+00
2.008390e+00
2.025030e+00
2.008390e+00
2.025030e+00
2.055220e+00
2.073810e+00
2.055220e+00
2.073810e+00
2.097380e+00
2.117850e+00
2.097380e+00
2.117850e+00
2.134730e+00
2.156870e+00
2.134730e+00
2.156870e+00
2.167230e+00
2.190760e+00
2.167230e+00
2.190760e+00
2.194790e+00
2.219460e+00
2.194790e+00
2.219460e+00
2.217380e+00
2.242950e+00
2.217380e+00
2.242950e+00
2.234960e+00
2.261220e+00
2.234960e+00
2.261220e+00
2.247520e+00
2.274260e+00
2.247520e+00
2.274260e+00
2.255070e+00
2.282080e+00
2.255070e+00
2.282080e+00
2.257580e+00
2.284690e+00
</DataArray>
<DataArray type="Float32" Name="V3" format="ascii">
0.000000e+00
0.000000e+00
4.205510e-02
4.095400e-02
4.205510e-02
4.095400e-02
8.394690e-02
8.174680e-02
8.394690e-02
8.174680e-02
1.255120e-01
1.222170e-01
1.255120e-01
1.222170e-01
1.665890e-01
1.622060e-01
1.665890e-01
1.622060e-01
2.070140e-01
2.015510e-01
2.070140e-01
2.015510e-01
2.466280e-01
2.400970e-01
2.466280e-01
2.400970e-01
2.852710e-01
2.776840e-01
2.852710e-01
2.776840e-01
3.227880e-01
3.141600e-01
3.227880e-01
3.141600e-01
3.590240e-01
3.493710e-01
3.590240e-01
3.493710e-01
3.938260e-01
3.831670e-01
3.938260e-01
3.831670e-01
4.270440e-01
4.154000e-01
4.270440e-01
4.154000e-01
4.585320e-01
4.459260e-01
4.585320e-01
4.459260e-01
4.881470e-01
4.746020e-01
4.881470e-01
4.746020e-01
5.157490e-01
5.012920e-01
5.157490e-01
5.012920e-01
5.412040e-01
5.258610e-01
5.412040e-01
5.258610e-01
5.643790e-01
5.481800e-01
5.643790e-01
5.481800e-01
5.851490e-01
5.681220e-01
5.851490e-01
5.681220e-01
6.033900e-01
5.855690e-01
6.033900e-01
5.855690e-01
6.189870e-01
6.004030e-01
6.189870e-01
6.004030e-01
6.318270e-01
6.125150e-01
6.318270e-01
6.125150e-01
6.418060e-01
6.217990e-01
6.418060e-01
6.217990e-01
6.488230e-01
6.281580e-01
6.488230e-01
6.281580e-01
6.527840e-01
6.314970e-01
6.527840e-01
6.314970e-01
6.536020e-01
6.317300e-01
6.536020e-01
6.317300e-01
6.511960e-01
6.287760e-01
6.511960e-01
6.287760e-01
6.454910e-01
6.225620e-01
6.454910e-01
6.225620e-01
6.364210e-01
6.130220e-01
6.364210e-01
6.130220e-01
6.239270e-01
6.000960e-01
6.239270e-01
6.000960e-01
6.079540e-01
5.837310e-01
6.079540e-01
5.837310e-01
5.884600e-01
5.638860e-01
5.884600e-01
5.638860e-01
5.654070e-01
5.405260e-01
5.654070e-01
5.405260e-01
5.387550e-01
5.136190e-01
5.387550e-01
5.136190e-01
5.084880e-01
4.831730e-01
5.084880e-01
4.831730e-01
4.745460e-01
4.491890e-01
4.745460e-01
4.491890e-01
4.368810e-01
4.117530e-01
4.368810e-01
4.117530e-01
3.954490e-01
3.709090e-01
3.954490e-01
3.709090e-01
3.525360e-01
3.278470e-01
3.525360e-01
3.278470e-01
3.119360e-01
2.886910e-01
3.119360e-01
2.886910e-01
2.739520e-01
2.525940e-01
2.739520e-01
2.525940e-01
2.382580e-01
2.190540e-01
2.382580e-01
2.190540e-01
2.045550e-01
1.876490e-01
2.045550e-01
1.876490e-01
1.725040e-01
1.579700e-01
1.725040e-01
1.579700e-01
1.418240e-01
1.296990e-01
1.418240e-01
1.296990e-01
1.122230e-01
1.025220e-01
1.122230e-01
1.025220e-01
8.346810e-02
7.619450e-02
8.346810e-02
7.619450e-02
5.531310e-02
5.046650e-02
5.531310e-02
5.046650e-02
2.756310e-02
2.514030e-02
2.756310e-02
2.514030e-02
0.000000e+00
0.000000e+00
</DataArray>
<DataArray type="Float32" Name="V4" format="ascii">
9.000000e-01
1.000000e+00
9.000000e-01
1.000000e+00
9.000000e-01
1.000000e+00
9.000000e-01
1.000000e+00
9.000000e-01
1.000000e+00
9.000000e-01
1.000000e+00
9.000000e-01
1.000000e+00
9.000000e-01
1.000000e+00
9.000000e-01
1.000000e+00
9.000000e-01
1.000000e+00
9.000000e-01
1.000000e+00
9.000000e-01
1.000000e+00
9.000000e-01
1.000000e+00
9.000000e-01
1.000000e+00
9.000000e-01
1.000000e+00
9.000000e-01
1.000000e+00
9.000000e-01
1.000000e+00
9.000000e-01
1.000000e+00
9.000000e-01
1.000000e+00
9.000000e-01
1.000000e+00
9.000000e-01
1.000000e+00
9.000000e-01
1.000000e+00
9.000000e-01
1.000000e+00
9.000000e-01
1.000000e+00
9.000000e-01
1.000000e+00
9.000000e-01
1.000000e+00
9.000000e-01
1.000000e+00
9.000000e-01
1.000000e+00
9.000000e-01
1.000000e+00
9.000000e-01
1.000000e+00
9.000000e-01
1.000000e+00
9.000000e-01
1.000000e+00
9.000000e-01
1.000000e+00
9.000000e-01
1.000000e+00
9.000000e-01
1.000000e+00
9.000000e-01
1.000000e+00
9.000000e-01
1.000000e+00
9.000000e-01
1.000000e+00
9.000000e-01
1.000000e+00
9.000000e-01
1.000000e+00
9.000000e-01
1.000000e+00
9.000000e-01
1.000000e+00
9.000000e-01
1.000000e+00
9.000000e-01
1.000000e+00
9.000000e-01
1.000000e+00
9.000000e-01
1.000000e+00
9.000000e-01
1.000000e+00
9.000000e-01
1.000000e+00
9.000000e-01
1.000000e+00
9.000000e-01
1.000000e+00
9.000000e-01
1.000000e+00
9.000000e-01
1.000000e+00
9.000000e-01
1.000000e+00
9.000000e-01
1.000000e+00
9.000000e-01
1.000000e+00
9.000000e-01
1.000000e+00
9.000000e-01
1.000000e+00
9.000000e-01
1.000000e+00
9.000000e-01
1.000000e+00
9.000000e-01
1.000000e+00
9.000000e-01
1.000000e+00
9.000000e-01
1.000000e+00
9.000000e-01
1.000000e+00
9.000000e-01
1.000000e+00
9.000000e-01
1.000000e+00
9.000000e-01
1.000000e+00
9.000000e-01
1.000000e+00
9.000000e-01
1.000000e+00
9.000000e-01
1.000000e+00
9.000000e-01
1.000000e+00
9.000000e-01
1.000000e+00
9.000000e-01
1.000000e+00
9.000000e-01
1.000000e+00
9.000000e-01
1.000000e+00
9.000000e-01
1.000000e+00
9.000000e-01
1.000000e+00
9.000000e-01
1.000000e+00
9.000000e-01
1.000000e+00
9.000000e-01
1.000000e+00
9.000000e-01
1.000000e+00
9.000000e-01
1.000000e+00
9.000000e-01
1.000000e+00
9.000000e-01
1.000000e+00
9.000000e-01
1.000000e+00
9.000000e-01
1.000000e+00
9.000000e-01
1.000000e+00
9.000000e-01
1.000000e+00
9.000000e-01
1.000000e+00
9.000000e-01
1.000000e+00
9.000000e-01
1.000000e+00
9.000000e-01
1.000000e+00
9.000000e-01
1.000000e+00
9.000000e-01
1.000000e+00
9.000000e-01
1.000000e+00
9.000000e-01
1.000000e+00
9.000000e-01
1.000000e+00
</DataArray>
<DataArray type="Float32" Name="V5" format="ascii">
0.000000e+00
0.000000e+00
3.272490e-02
3.272490e-02
3.272490e-02
3.272490e-02
6.544980e-02
6.544980e-02
6.544980e-02
6.544980e-02
9.817480e-02
9.817480e-02
9.817480e-02
9.817480e-02
1.309000e-01
1.309000e-01
1.309000e-01
1.309000e-01
1.636250e-01
1.636250e-01
1.636250e-01
1.636250e-01
1.963500e-01
1.963500e-01
1.963500e-01
1.963500e-01
2.290740e-01
2.290740e-01
2.290740e-01
2.290740e-01
2.617990e-01
2.617990e-01
2.617990e-01
2.617990e-01
2.945240e-01
2.945240e-01
2.945240e-01
2.945240e-01
3.272490e-01
3.272490e-01
3.272490e-01
3.272490e-01
3.599740e-01
3.599740e-01
3.599740e-01
3.599740e-01
3.926990e-01
3.926990e-01
3.926990e-01
3.926990e-01
4.254240e-01
4.254240e-01
4.254240e-01
4.254240e-01
4.581490e-01
4.581490e-01
4.581490e-01
4.581490e-01
4.908740e-01
4.908740e-01
4.908740e-01
4.908740e-01
5.235990e-01
5.235990e-01
5.235990e-01
5.235990e-01
5.563240e-01
5.563240e-01
5.563240e-01
5.563240e-01
5.890490e-01
5.890490e-01
5.890490e-01
5.890490e-01
6.217740e-01
6.217740e-01
6.217740e-01
6.217740e-01
6.544980e-01
6.544980e-01
6.544980e-01
6.544980e-01
6.872230e-01
6.872230e-01
6.872230e-01
6.872230e-01
7.199480e-01
7.199480e-01
7.199480e-01
7.199480e-01
7.526730e-01
7.526730e-01
7.526730e-01
7.526730e-01
7.853980e-01
7.853980e-01
7.853980e-01
7.853980e-01
8.181230e-01
8.181230e-01
8.181230e-01
8.181230e-01
8.508480e-01
8.508480e-01
8.508480e-01
8.508480e-01
8.835730e-01
8.835730e-01
8.835730e-01
8.835730e-01
9.162980e-01
9.162980e-01
9.162980e-01
9.162980e-01
9.490230e-01
9.490230e-01
9.490230e-01
9.490230e-01
9.817480e-01
9.817480e-01
9.817480e-01
9.817480e-01
1.014470e+00
1.014470e+00
1.014470e+00
1.014470e+00
1.047200e+00
1.047200e+00
1.047200e+00
1.047200e+00
1.079920e+00
1.079920e+00
1.079920e+00
1.079920e+00
1.112650e+00
1.112650e+00
1.112650e+00
1.112650e+00
1.145370e+00
1.145370e+00
1.145370e+00
1.145370e+00
1.178100e+00
1.178100e+00
1.178100e+00
1.178100e+00
1.210820e+00
1.210820e+00
1.210820e+00
1.210820e+00
1.243550e+00
1.243550e+00
1.243550e+00
1.243550e+00
1.276270e+00
1.276270e+00
1.276270e+00
1.276270e+00
1.309000e+00
1.309000e+00
1.309000e+00
1.309000e+00
1.341720e+00
1.341720e+00
1.341720e+00
1.341720e+00
1.374450e+00
1.374450e+00
1.374450e+00
1.374450e+00
1.407170e+00
1.407170e+00
1.407170e+00
1.407170e+00
1.439900e+00
1.439900e+00
1.439900e+00
1.439900e+00
1.472620e+00
1.472620e+00
1.472620e+00
1.472620e+00
1.505350e+00
1.505350e+00
1.505350e+00
1.505350e+00
1.538070e+00
1.538070e+00
1.538070e+00
1.538070e+00
1.570800e+00
1.570800e+00
</DataArray>
</PointData>
</Piece></UnstructuredGrid>
</VTKFile>
