<?xml version="1.0"?>
<VTKFile type="UnstructuredGrid" version="0.1" byte_order="LittleEndian" compressor="vtkZLibDataCompressor">
<UnstructuredGrid>
<Piece NumberOfPoints="192" NumberOfCells="48">
<Points>
<DataArray type="Float32" NumberOfComponents="3" format="ascii">
0.000000e+00 5.884810e-01 0.000000e+00
0.000000e+00 6.800000e-01 0.000000e+00
3.253430e-02 5.884940e-01 0.000000e+00
3.250170e-02 6.800000e-01 0.000000e+00
3.253430e-02 5.884940e-01 0.000000e+00
3.250170e-02 6.800000e-01 0.000000e+00
6.506690e-02 5.885340e-01 0.000000e+00
6.500170e-02 6.800000e-01 0.000000e+00
6.506690e-02 5.885340e-01 0.000000e+00
6.500170e-02 6.800000e-01 0.000000e+00
9.759620e-02 5.885990e-01 0.000000e+00
9.749840e-02 6.800000e-01 0.000000e+00
9.759620e-02 5.885990e-01 0.000000e+00
9.749840e-02 6.800000e-01 0.000000e+00
1.301200e-01 5.886910e-01 0.000000e+00
1.299900e-01 6.800000e-01 0.000000e+00
1.301200e-01 5.886910e-01 0.000000e+00
1.299900e-01 6.800000e-01 0.000000e+00
1.626380e-01 5.888090e-01 0.000000e+00
1.624750e-01 6.800000e-01 0.000000e+00
1.626380e-01 5.888090e-01 0.000000e+00
1.624750e-01 6.800000e-01 0.000000e+00
1.951460e-01 5.889540e-01 0.000000e+00
1.949510e-01 6.800000e-01 0.000000e+00
1.951460e-01 5.889540e-01 0.000000e+00
1.949510e-01 6.800000e-01 0.000000e+00
2.276440e-01 5.891240e-01 0.000000e+00
2.274160e-01 6.800000e-01 0.000000e+00
2.276440e-01 5.891240e-01 0.000000e+00
2.274160e-01 6.800000e-01 0.000000e+00
2.601300e-01 5.893210e-01 0.000000e+00
2.598690e-01 6.800000e-01 0.000000e+00
2.601300e-01 5.893210e-01 0.000000e+00
2.598690e-01 6.800000e-01 0.000000e+00
2.926040e-01 5.895430e-01 0.000000e+00
2.923080e-01 6.800000e-01 0.000000e+00
2.926040e-01 5.895430e-01 0.000000e+00
2.923080e-01 6.800000e-01 0.000000e+00
3.250640e-01 5.897930e-01 0.000000e+00
3.247320e-01 6.800000e-01 0.000000e+00
3.250640e-01 5.897930e-01 0.000000e+00
3.247320e-01 6.800000e-01 0.000000e+00
3.575090e-01 5.900700e-01 0.000000e+00
3.571380e-01 6.800000e-01 0.000000e+00
3.575090e-01 5.900700e-01 0.000000e+00
3.571380e-01 6.800000e-01 0.000000e+00
3.899380e-01 5.903770e-01 0.000000e+00
3.895270e-01 6.800000e-01 0.000000e+00
3.899380e-01 5.903770e-01 0.000000e+00
3.895270e-01 6.800000e-01 0.000000e+00
4.223500e-01 5.907210e-01 0.000000e+00
4.219040e-01 6.800000e-01 0.000000e+00
4.223500e-01 5.907210e-01 0.000000e+00
4.219040e-01 6.800000e-01 0.000000e+00
4.547360e-01 5.911090e-01 0.000000e+00
4.542830e-01 6.800000e-01 0.000000e+00
4.547360e-01 5.911090e-01 0.000000e+00
4.542830e-01 6.800000e-01 0.000000e+00
4.870770e-01 5.915520e-01 0.000000e+00
4.866940e-01 6.800000e-01 0.000000e+00
4.870770e-01 5.915520e-01 0.000000e+00
4.866940e-01 6.800000e-01 0.000000e+00
5.193260e-01 5.920600e-01 0.000000e+00
5.191940e-01 6.800000e-01 0.000000e+00
5.193260e-01 5.920600e-01 0.000000e+00
5.191940e-01 6.800000e-01 0.000000e+00
5.513830e-01 5.926160e-01 0.000000e+00
5.518790e-01 6.800000e-01 0.000000e+00
5.513830e-01 5.926160e-01 0.000000e+00
5.518790e-01 6.800000e-01 0.000000e+00
5.830650e-01 5.931310e-01 0.000000e+00
5.848740e-01 6.800000e-01 0.000000e+00
5.830650e-01 5.931310e-01 0.000000e+00
5.848740e-01 6.800000e-01 0.000000e+00
6.141140e-01 5.933380e-01 0.000000e+00
6.182870e-01 6.800000e-01 0.000000e+00
6.141140e-01 5.933380e-01 0.000000e+00
6.182870e-01 6.800000e-01 0.000000e+00
6.444360e-01 5.927900e-01 0.000000e+00
6.520230e-01 6.798780e-01 0.000000e+00
6.444360e-01 5.927900e-01 0.000000e+00
6.520230e-01 6.798780e-01 0.000000e+00
6.740490e-01 5.908400e-01 0.000000e+00
6.858120e-01 6.773510e-01 0.000000e+00
6.740490e-01 5.908400e-01 0.000000e+00
6.858120e-01 6.773510e-01 0.000000e+00
7.028090e-01 5.871100e-01 0.000000e+00
7.196880e-01 6.722320e-01 0.000000e+00
7.028090e-01 5.871100e-01 0.000000e+00
7.196880e-01 6.722320e-01 0.000000e+00
7.308660e-01 5.813040e-01 0.000000e+00
7.533270e-01 6.645630e-01 0.000000e+00
7.308660e-01 5.813040e-01 0.000000e+00
7.533270e-01 6.645630e-01 0.000000e+00
7.582410e-01 5.733740e-01 0.000000e+00
7.863920e-01 6.543360e-01 0.000000e+00
7.582410e-01 5.733740e-01 0.000000e+00
7.863920e-01 6.543360e-01 0.000000e+00
7.848920e-01 5.633550e-01 0.000000e+00
8.185990e-01 6.416320e-01 0.000000e+00
7.848920e-01 5.633550e-01 0.000000e+00
8.185990e-01 6.416320e-01 0.000000e+00
8.107530e-01 5.513240e-01 0.000000e+00
8.497280e-01 6.266000e-01 0.000000e+00
8.107530e-01 5.513240e-01 0.000000e+00
8.497280e-01 6.266000e-01 0.000000e+00
8.357530e-01 5.373890e-01 0.000000e+00
8.796240e-01 6.094230e-01 0.000000e+00
8.357530e-01 5.373890e-01 0.000000e+00
8.796240e-01 6.094230e-01 0.000000e+00
8.598230e-01 5.216710e-01 0.000000e+00
9.081820e-01 5.902930e-01 0.000000e+00
8.598230e-01 5.216710e-01 0.000000e+00
9.081820e-01 5.902930e-01 0.000000e+00
8.829060e-01 5.043000e-01 0.000000e+00
9.353380e-01 5.694030e-01 0.000000e+00
8.829060e-01 5.043000e-01 0.000000e+00
9.353380e-01 5.694030e-01 0.000000e+00
9.049510e-01 4.854060e-01 0.000000e+00
9.610570e-01 5.469280e-01 0.000000e+00
9.049510e-01 4.854060e-01 0.000000e+00
9.610570e-01 5.469280e-01 0.000000e+00
9.259160e-01 4.651170e-01 0.000000e+00
9.853210e-01 5.230360e-01 0.000000e+00
9.259160e-01 4.651170e-01 0.000000e+00
9.853210e-01 5.230360e-01 0.000000e+00
9.457760e-01 4.435500e-01 0.000000e+00
1.008140e+00 4.978640e-01 0.000000e+00
9.457760e-01 4.435500e-01 0.000000e+00
1.008140e+00 4.978640e-01 0.000000e+00
9.644940e-01 4.208290e-01 0.000000e+00
1.029500e+00 4.715580e-01 0.000000e+00
9.644940e-01 4.208290e-01 0.000000e+00
1.029500e+00 4.715580e-01 0.000000e+00
9.820620e-01 3.970500e-01 0.000000e+00
1.049430e+00 4.442190e-01 0.000000e+00
9.820620e-01 3.970500e-01 0.000000e+00
1.049430e+00 4.442190e-01 0.000000e+00
9.984550e-01 3.723260e-01 0.000000e+00
1.067930e+00 4.159690e-01 0.000000e+00
9.984550e-01 3.723260e-01 0.000000e+00
1.067930e+00 4.159690e-01 0.000000e+00
1.013670e+00 3.467360e-01 0.000000e+00
1.085020e+00 3.868850e-01 0.000000e+00
1.013670e+00 3.467360e-01 0.000000e+00
1.085020e+00 3.868850e-01 0.000000e+00
1.027690e+00 3.203830e-01 0.000000e+00
1.100710e+00 3.570720e-01 0.000000e+00
1.027690e+00 3.203830e-01 0.000000e+00
1.100710e+00 3.570720e-01 0.000000e+00
1.040510e+00 2.933320e-01 0.000000e+00
1.115000e+00 3.265900e-01 0.000000e+00
1.040510e+00 2.933320e-01 0.000000e+00
1.115000e+00 3.265900e-01 0.000000e+00
1.052120e+00 2.656740e-01 0.000000e+00
1.127910e+00 2.955320e-01 0.000000e+00
1.052120e+00 2.656740e-01 0.000000e+00
1.127910e+00 2.955320e-01 0.000000e+00
1.062520e+00 2.374660e-01 0.000000e+00
1.139450e+00 2.639480e-01 0.000000e+00
1.062520e+00 2.374660e-01 0.000000e+00
1.139450e+00 2.639480e-01 0.000000e+00
1.071710e+00 2.087940e-01 0.000000e+00
1.149620e+00 2.319210e-01 0.000000e+00
1.071710e+00 2.087940e-01 0.000000e+00
1.149620e+00 2.319210e-01 0.000000e+00
1.079680e+00 1.797030e-01 0.000000e+00
1.158420e+00 1.994940e-01 0.000000e+00
1.079680e+00 1.797030e-01 0.000000e+00
1.158420e+00 1.994940e-01 0.000000e+00
1.086420e+00 1.502760e-01 0.000000e+00
1.165870e+00 1.667470e-01 0.000000e+00
1.086420e+00 1.502760e-01 0.000000e+00
1.165870e+00 1.667470e-01 0.000000e+00
1.091950e+00 1.205550e-01 0.000000e+00
1.171950e+00 1.337160e-01 0.000000e+00
1.091950e+00 1.205550e-01 0.000000e+00
1.171950e+00 1.337160e-01 0.000000e+00
1.096250e+00 9.061610e-02 0.000000e+00
1.176690e+00 1.004790e-01 0.000000e+00
1.096250e+00 9.061610e-02 0.000000e+00
1.176690e+00 1.004790e-01 0.000000e+00
1.099320e+00 6.049960e-02 0.000000e+00
1.180060e+00 6.707080e-02 0.000000e+00
1.099320e+00 6.049960e-02 0.000000e+00
1.180060e+00 6.707080e-02 0.000000e+00
1.101160e+00 3.028030e-02 0.000000e+00
1.182090e+00 3.356510e-02 0.000000e+00
1.101160e+00 3.028030e-02 0.000000e+00
1.182090e+00 3.356510e-02 0.000000e+00
1.101770e+00 -4.047040e-06 0.000000e+00
1.182770e+00 -4.344550e-06 0.000000e+00
</DataArray>
</Points>
<Cells>
<DataArray type="Int32" Name="connectivity" format="ascii">
0 1 3 2
4 5 7 6
8 9 11 10
12 13 15 14
16 17 19 18
20 21 23 22
24 25 27 26
28 29 31 30
32 33 35 34
36 37 39 38
40 41 43 42
44 45 47 46
48 49 51 50
52 53 55 54
56 57 59 58
60 61 63 62
64 65 67 66
68 69 71 70
72 73 75 74
76 77 79 78
80 81 83 82
84 85 87 86
88 89 91 90
92 93 95 94
96 97 99 98
100 101 103 102
104 105 107 106
108 109 111 110
112 113 115 114
116 117 119 118
120 121 123 122
124 125 127 126
128 129 131 130
132 133 135 134
136 137 139 138
140 141 143 142
144 145 147 146
148 149 151 150
152 153 155 154
156 157 159 158
160 161 163 162
164 165 167 166
168 169 171 170
172 173 175 174
176 177 179 178
180 181 183 182
184 185 187 186
188 189 191 190
</DataArray>
<DataArray type="Int32" Name="offsets" format="ascii">
4
8
12
16
20
24
28
32
36
40
44
48
52
56
60
64
68
72
76
80
84
88
92
96
100
104
108
112
116
120
124
128
132
136
140
144
148
152
156
160
164
168
172
176
180
184
188
192
</DataArray>
<DataArray type="UInt8" Name="types" format="ascii">
9
9
9
9
9
9
9
9
9
9
9
9
9
9
9
9
9
9
9
9
9
9
9
9
9
9
9
9
9
9
9
9
9
9
9
9
9
9
9
9
9
9
9
9
9
9
9
9
</DataArray>
</Cells>
<PointData>
<DataArray type="Float32" Name="V1" format="ascii">
1.390350e+00
-6.742040e-01
1.391990e+00
-6.725610e-01
1.392250e+00
-6.723800e-01
1.396110e+00
-6.685250e-01
1.396480e+00
-6.683910e-01
1.403230e+00
-6.616350e-01
1.403580e+00
-6.616380e-01
1.413190e+00
-6.520320e-01
1.413560e+00
-6.521410e-01
1.426000e+00
-6.396970e-01
1.426420e+00
-6.399040e-01
1.441700e+00
-6.246180e-01
1.442200e+00
-6.249310e-01
1.460330e+00
-6.067930e-01
1.460940e+00
-6.072380e-01
1.481940e+00
-5.862320e-01
1.482720e+00
-5.868630e-01
1.506600e+00
-5.629830e-01
1.507660e+00
-5.638900e-01
1.534390e+00
-5.371610e-01
1.535880e+00
-5.384710e-01
1.565360e+00
-5.089890e-01
1.567430e+00
-5.108330e-01
1.599420e+00
-4.788440e-01
1.602070e+00
-4.811990e-01
1.636050e+00
-4.472190e-01
1.638680e+00
-4.494980e-01
1.673740e+00
-4.144450e-01
1.674090e+00
-4.145230e-01
1.708880e+00
-3.797390e-01
1.700850e+00
-3.719770e-01
1.734090e+00
-3.387330e-01
1.703730e+00
-3.104180e-01
1.736280e+00
-2.778690e-01
1.655820e+00
-2.040360e-01
1.696500e+00
-1.633570e-01
1.518860e+00
-2.187440e-03
1.597540e+00
7.649460e-02
1.255400e+00
3.987210e-01
1.415700e+00
5.590220e-01
1.038470e+00
9.382950e-01
1.131140e+00
1.030960e+00
9.226230e-01
1.210470e+00
9.808800e-01
1.268730e+00
8.543170e-01
1.384460e+00
9.122160e-01
1.442360e+00
8.392790e-01
1.509720e+00
8.976310e-01
1.568080e+00
8.624450e-01
1.600600e+00
9.195140e-01
1.657670e+00
9.103410e-01
1.666140e+00
9.648950e-01
1.720690e+00
9.729540e-01
1.713250e+00
1.024260e+00
1.764560e+00
1.043080e+00
1.747170e+00
1.090750e+00
1.794840e+00
1.115680e+00
1.771810e+00
1.159570e+00
1.815700e+00
1.187350e+00
1.790020e+00
1.227490e+00
1.830160e+00
1.255920e+00
1.803860e+00
1.292410e+00
1.840360e+00
1.320090e+00
1.814760e+00
1.353130e+00
1.847800e+00
1.379190e+00
1.823690e+00
1.408980e+00
1.853480e+00
1.432960e+00
1.831290e+00
1.459750e+00
1.858080e+00
1.481450e+00
1.838000e+00
1.505440e+00
1.861990e+00
1.524820e+00
1.844050e+00
1.546240e+00
1.865470e+00
1.563380e+00
1.849610e+00
1.582420e+00
1.868640e+00
1.597430e+00
1.854740e+00
1.614260e+00
1.871580e+00
1.627310e+00
1.859490e+00
1.642100e+00
1.874280e+00
1.653340e+00
1.863860e+00
1.666230e+00
1.876750e+00
1.675820e+00
1.867870e+00
1.686920e+00
1.878970e+00
1.695010e+00
1.871480e+00
1.704430e+00
1.880900e+00
1.711130e+00
1.874690e+00
1.718960e+00
1.882520e+00
1.724380e+00
1.877490e+00
1.730700e+00
1.883810e+00
1.734930e+00
1.879880e+00
1.739780e+00
1.884730e+00
1.742900e+00
1.881840e+00
1.746330e+00
1.885270e+00
1.748390e+00
1.883370e+00
1.750430e+00
1.885420e+00
1.751450e+00
1.884480e+00
1.752130e+00
1.885160e+00
</DataArray>
<DataArray type="Float32" Name="V2" format="ascii">
5.884810e-01
6.800000e-01
5.892440e-01
6.806990e-01
5.892440e-01
6.806990e-01
5.915290e-01
6.827950e-01
5.915290e-01
6.827950e-01
5.953310e-01
6.862820e-01
5.953310e-01
6.862820e-01
6.006390e-01
6.911500e-01
6.006390e-01
6.911500e-01
6.074380e-01
6.973840e-01
6.074380e-01
6.973840e-01
6.157080e-01
7.049670e-01
6.157080e-01
7.049670e-01
6.254270e-01
7.138770e-01
6.254270e-01
7.138770e-01
6.365670e-01
7.240890e-01
6.365670e-01
7.240890e-01
6.490960e-01
7.355720e-01
6.490960e-01
7.355720e-01
6.629810e-01
7.482940e-01
6.629810e-01
7.482940e-01
6.781820e-01
7.622180e-01
6.781820e-01
7.622180e-01
6.946610e-01
7.773040e-01
6.946610e-01
7.773040e-01
7.123730e-01
7.935100e-01
7.123730e-01
7.935100e-01
7.312740e-01
8.107980e-01
7.312740e-01
8.107980e-01
7.513090e-01
8.291330e-01
7.513090e-01
8.291330e-01
7.724020e-01
8.484950e-01
7.724020e-01
8.484950e-01
7.944180e-01
8.688870e-01
7.944180e-01
8.688870e-01
8.171040e-01
8.903380e-01
8.171040e-01
8.903380e-01
8.400000e-01
9.128740e-01
8.400000e-01
9.128740e-01
8.625990e-01
9.363090e-01
8.625990e-01
9.363090e-01
8.843380e-01
9.586740e-01
8.843380e-01
9.586740e-01
9.048070e-01
9.799330e-01
9.048070e-01
9.799330e-01
9.238870e-01
1.000010e+00
9.238870e-01
1.000010e+00
9.415940e-01
1.018750e+00
9.415940e-01
1.018750e+00
9.579700e-01
1.036080e+00
9.579700e-01
1.036080e+00
9.730700e-01
1.052010e+00
9.730700e-01
1.052010e+00
9.869610e-01
1.066570e+00
9.869610e-01
1.066570e+00
9.997170e-01
1.079860e+00
9.997170e-01
1.079860e+00
1.011410e+00
1.091950e+00
1.011410e+00
1.091950e+00
1.022120e+00
1.102950e+00
1.022120e+00
1.102950e+00
1.031900e+00
1.112940e+00
1.031900e+00
1.112940e+00
1.040840e+00
1.122010e+00
1.040840e+00
1.122010e+00
1.048990e+00
1.130230e+00
1.048990e+00
1.130230e+00
1.056400e+00
1.137680e+00
1.056400e+00
1.137680e+00
1.063120e+00
1.144410e+00
1.063120e+00
1.144410e+00
1.069200e+00
1.150480e+00
1.069200e+00
1.150480e+00
1.074670e+00
1.155940e+00
1.074670e+00
1.155940e+00
1.079580e+00
1.160810e+00
1.079580e+00
1.160810e+00
1.083940e+00
1.165140e+00
1.083940e+00
1.165140e+00
1.087780e+00
1.168940e+00
1.087780e+00
1.168940e+00
1.091120e+00
1.172250e+00
1.091120e+00
1.172250e+00
1.093990e+00
1.175090e+00
1.093990e+00
1.175090e+00
1.096390e+00
1.177460e+00
1.096390e+00
1.177460e+00
1.098340e+00
1.179380e+00
1.098340e+00
1.179380e+00
1.099850e+00
1.180870e+00
1.099850e+00
1.180870e+00
1.100920e+00
1.181930e+00
1.100920e+00
1.181930e+00
1.101560e+00
1.182560e+00
1.101560e+00
1.182560e+00
1.101770e+00
1.182770e+00
</DataArray>
<DataArray type="Float32" Name="V3" format="ascii">
0.000000e+00
0.000000e+00
1.326190e-02
1.023530e-02
1.326190e-02
1.023530e-02
2.643570e-02
2.038840e-02
2.643570e-02
2.038840e-02
3.943340e-02
3.037730e-02
3.943340e-02
3.037730e-02
5.216750e-02
4.012010e-02
5.216750e-02
4.012010e-02
6.455070e-02
4.953560e-02
6.455070e-02
4.953560e-02
7.649710e-02
5.854340e-02
7.649710e-02
5.854340e-02
8.792120e-02
6.706350e-02
8.792120e-02
6.706350e-02
9.873960e-02
7.501770e-02
9.873960e-02
7.501770e-02
1.088700e-01
8.232840e-02
1.088700e-01
8.232840e-02
1.182310e-01
8.891960e-02
1.182310e-01
8.891960e-02
1.267430e-01
9.471740e-02
1.267430e-01
9.471740e-02
1.343280e-01
9.965140e-02
1.343280e-01
9.965140e-02
1.409080e-01
1.036570e-01
1.409080e-01
1.036570e-01
1.463990e-01
1.066780e-01
1.463990e-01
1.066780e-01
1.507080e-01
1.086760e-01
1.507080e-01
1.086760e-01
1.537200e-01
1.096350e-01
1.537200e-01
1.096350e-01
1.552940e-01
1.095700e-01
1.552940e-01
1.095700e-01
1.552750e-01
1.085170e-01
1.552750e-01
1.085170e-01
1.535740e-01
1.064870e-01
1.535740e-01
1.064870e-01
1.503980e-01
1.034020e-01
1.503980e-01
1.034020e-01
1.462220e-01
1.004330e-01
1.462220e-01
1.004330e-01
1.412920e-01
9.785700e-02
1.412920e-01
9.785700e-02
1.360580e-01
9.553580e-02
1.360580e-01
9.553580e-02
1.307210e-01
9.337800e-02
1.307210e-01
9.337800e-02
1.253740e-01
9.128390e-02
1.253740e-01
9.128390e-02
1.200600e-01
8.916200e-02
1.200600e-01
8.916200e-02
1.147890e-01
8.693740e-02
1.147890e-01
8.693740e-02
1.095580e-01
8.455460e-02
1.095580e-01
8.455460e-02
1.043540e-01
8.197610e-02
1.043540e-01
8.197610e-02
9.916360e-02
7.917990e-02
9.916360e-02
7.917990e-02
9.397060e-02
7.615620e-02
9.397060e-02
7.615620e-02
8.876020e-02
7.290340e-02
8.876020e-02
7.290340e-02
8.352380e-02
6.942890e-02
8.352380e-02
6.942890e-02
7.824920e-02
6.574090e-02
7.824920e-02
6.574090e-02
7.293330e-02
6.185440e-02
7.293330e-02
6.185440e-02
6.756860e-02
5.778170e-02
6.756860e-02
5.778170e-02
6.215620e-02
5.354080e-02
6.215620e-02
5.354080e-02
5.669250e-02
4.914470e-02
5.669250e-02
4.914470e-02
5.118170e-02
4.461180e-02
5.118170e-02
4.461180e-02
4.562280e-02
3.995470e-02
4.562280e-02
3.995470e-02
4.002230e-02
3.519120e-02
4.002230e-02
3.519120e-02
3.438080e-02
3.033290e-02
3.438080e-02
3.033290e-02
2.870640e-02
2.539710e-02
2.870640e-02
2.539710e-02
2.300080e-02
2.039450e-02
2.300080e-02
2.039450e-02
1.727280e-02
1.534160e-02
1.727280e-02
1.534160e-02
1.152490e-02
1.024860e-02
1.152490e-02
1.024860e-02
5.766400e-03
5.131460e-03
5.766400e-03
5.131460e-03
0.000000e+00
0.000000e+00
</DataArray>
<DataArray type="Float32" Name="V4" format="ascii">
9.000000e-01
1.000000e+00
9.000000e-01
1.000000e+00
9.000000e-01
1.000000e+00
9.000000e-01
1.000000e+00
9.000000e-01
1.000000e+00
9.000000e-01
1.000000e+00
9.000000e-01
1.000000e+00
9.000000e-01
1.000000e+00
9.000000e-01
1.000000e+00
9.000000e-01
1.000000e+00
9.000000e-01
1.000000e+00
9.000000e-01
1.000000e+00
9.000000e-01
1.000000e+00
9.000000e-01
1.000000e+00
9.000000e-01
1.000000e+00
9.000000e-01
1.000000e+00
9.000000e-01
1.000000e+00
9.000000e-01
1.000000e+00
9.000000e-01
1.000000e+00
9.000000e-01
1.000000e+00
9.000000e-01
1.000000e+00
9.000000e-01
1.000000e+00
9.000000e-01
1.000000e+00
9.000000e-01
1.000000e+00
9.000000e-01
1.000000e+00
9.000000e-01
1.000000e+00
9.000000e-01
1.000000e+00
9.000000e-01
1.000000e+00
9.000000e-01
1.000000e+00
9.000000e-01
1.000000e+00
9.000000e-01
1.000000e+00
9.000000e-01
1.000000e+00
9.000000e-01
1.000000e+00
9.000000e-01
1.000000e+00
9.000000e-01
1.000000e+00
9.000000e-01
1.000000e+00
9.000000e-01
1.000000e+00
9.000000e-01
1.000000e+00
9.000000e-01
1.000000e+00
9.000000e-01
1.000000e+00
9.000000e-01
1.000000e+00
9.000000e-01
1.000000e+00
9.000000e-01
1.000000e+00
9.000000e-01
1.000000e+00
9.000000e-01
1.000000e+00
9.000000e-01
1.000000e+00
9.000000e-01
1.000000e+00
9.000000e-01
1.000000e+00
9.000000e-01
1.000000e+00
9.000000e-01
1.000000e+00
9.000000e-01
1.000000e+00
9.000000e-01
1.000000e+00
9.000000e-01
1.000000e+00
9.000000e-01
1.000000e+00
9.000000e-01
1.000000e+00
9.000000e-01
1.000000e+00
9.000000e-01
1.000000e+00
9.000000e-01
1.000000e+00
9.000000e-01
1.000000e+00
9.000000e-01
1.000000e+00
9.000000e-01
1.000000e+00
9.000000e-01
1.000000e+00
9.000000e-01
1.000000e+00
9.000000e-01
1.000000e+00
9.000000e-01
1.000000e+00
9.000000e-01
1.000000e+00
9.000000e-01
1.000000e+00
9.000000e-01
1.000000e+00
9.000000e-01
1.000000e+00
9.000000e-01
1.000000e+00
9.000000e-01
1.000000e+00
9.000000e-01
1.000000e+00
9.000000e-01
1.000000e+00
9.000000e-01
1.000000e+00
9.000000e-01
1.000000e+00
9.000000e-01
1.000000e+00
9.000000e-01
1.000000e+00
9.000000e-01
1.000000e+00
9.000000e-01
1.000000e+00
9.000000e-01
1.000000e+00
9.000000e-01
1.000000e+00
9.000000e-01
1.000000e+00
9.000000e-01
1.000000e+00
9.000000e-01
1.000000e+00
9.000000e-01
1.000000e+00
9.000000e-01
1.000000e+00
9.000000e-01
1.000000e+00
9.000000e-01
1.000000e+00
9.000000e-01
1.000000e+00
9.000000e-01
1.000000e+00
9.000000e-01
1.000000e+00
9.000000e-01
1.000000e+00
9.000000e-01
1.000000e+00
9.000000e-01
1.000000e+00
9.000000e-01
1.000000e+00
9.000000e-01
1.000000e+00
</DataArray>
<DataArray type="Float32" Name="V5" format="ascii">
0.000000e+00
0.000000e+00
3.272490e-02
3.272490e-02
3.272490e-02
3.272490e-02
6.544980e-02
6.544980e-02
6.544980e-02
6.544980e-02
9.817480e-02
9.817480e-02
9.817480e-02
9.817480e-02
1.309000e-01
1.309000e-01
1.309000e-01
1.309000e-01
1.636250e-01
1.636250e-01
1.636250e-01
1.636250e-01
1.963500e-01
1.963500e-01
1.963500e-01
1.963500e-01
2.290740e-01
2.290740e-01
2.290740e-01
2.290740e-01
2.617990e-01
2.617990e-01
2.617990e-01
2.617990e-01
2.945240e-01
2.945240e-01
2.945240e-01
2.945240e-01
3.272490e-01
3.272490e-01
3.272490e-01
3.272490e-01
3.599740e-01
3.599740e-01
3.599740e-01
3.599740e-01
3.926990e-01
3.926990e-01
3.926990e-01
3.926990e-01
4.254240e-01
4.254240e-01
4.254240e-01
4.254240e-01
4.581490e-01
4.581490e-01
4.581490e-01
4.581490e-01
4.908740e-01
4.908740e-01
4.908740e-01
4.908740e-01
5.235990e-01
5.235990e-01
5.235990e-01
5.235990e-01
5.563240e-01
5.563240e-01
5.563240e-01
5.563240e-01
5.890490e-01
5.890490e-01
5.890490e-01
5.890490e-01
6.217740e-01
6.217740e-01
6.217740e-01
6.217740e-01
6.544980e-01
6.544980e-01
6.544980e-01
6.544980e-01
6.872230e-01
6.872230e-01
6.872230e-01
6.872230e-01
7.199480e-01
7.199480e-01
7.199480e-01
7.199480e-01
7.526730e-01
7.526730e-01
7.526730e-01
7.526730e-01
7.853980e-01
7.853980e-01
7.853980e-01
7.853980e-01
8.181230e-01
8.181230e-01
8.181230e-01
8.181230e-01
8.508480e-01
8.508480e-01
8.508480e-01
8.508480e-01
8.835730e-01
8.835730e-01
8.835730e-01
8.835730e-01
9.162980e-01
9.162980e-01
9.162980e-01
9.162980e-01
9.490230e-01
9.490230e-01
9.490230e-01
9.490230e-01
9.817480e-01
9.817480e-01
9.817480e-01
9.817480e-01
1.014470e+00
1.014470e+00
1.014470e+00
1.014470e+00
1.047200e+00
1.047200e+00
1.047200e+00
1.047200e+00
1.079920e+00
1.079920e+00
1.079920e+00
1.079920e+00
1.112650e+00
1.112650e+00
1.112650e+00
1.112650e+00
1.145370e+00
1.145370e+00
1.145370e+00
1.145370e+00
1.178100e+00
1.178100e+00
1.178100e+00
1.178100e+00
1.210820e+00
1.210820e+00
1.210820e+00
1.210820e+00
1.243550e+00
1.243550e+00
1.243550e+00
1.243550e+00
1.276270e+00
1.276270e+00
1.276270e+00
1.276270e+00
1.309000e+00
1.309000e+00
1.309000e+00
1.309000e+00
1.341720e+00
1.341720e+00
1.341720e+00
1.341720e+00
1.374450e+00
1.374450e+00
1.374450e+00
1.374450e+00
1.407170e+00
1.407170e+00
1.407170e+00
1.407170e+00
1.439900e+00
1.439900e+00
1.439900e+00
1.439900e+00
1.472620e+00
1.472620e+00
1.472620e+00
1.472620e+00
1.505350e+00
1.505350e+00
1.505350e+00
1.505350e+00
1.538070e+00
1.538070e+00
1.538070e+00
1.538070e+00
1.570800e+00
1.570800e+00
</DataArray>
</PointData>
</Piece></UnstructuredGrid>
</VTKFile>
