<?xml version="1.0"?>
<VTKFile type="UnstructuredGrid" version="0.1" byte_order="LittleEndian" compressor="vtkZLibDataCompressor">
<UnstructuredGrid>
<Piece NumberOfPoints="192" NumberOfCells="48">
<Points>
<DataArray type="Float32" NumberOfComponents="3" format="ascii">
0.000000e+00 4.139680e-01 0.000000e+00
0.000000e+00 4.700000e-01 0.000000e+00
4.156040e-02 4.139780e-01 0.000000e+00
4.154690e-02 4.700000e-01 0.000000e+00
4.156040e-02 4.139780e-01 0.000000e+00
4.154690e-02 4.700000e-01 0.000000e+00
8.312070e-02 4.140080e-01 0.000000e+00
8.309370e-02 4.700000e-01 0.000000e+00
8.312070e-02 4.140080e-01 0.000000e+00
8.309370e-02 4.700000e-01 0.000000e+00
1.246810e-01 4.140570e-01 0.000000e+00
1.246400e-01 4.700000e-01 0.000000e+00
1.246810e-01 4.140570e-01 0.000000e+00
1.246400e-01 4.700000e-01 0.000000e+00
1.662410e-01 4.141260e-01 0.000000e+00
1.661870e-01 4.700000e-01 0.000000e+00
1.662410e-01 4.141260e-01 0.000000e+00
1.661870e-01 4.700000e-01 0.000000e+00
2.077990e-01 4.142150e-01 0.000000e+00
2.077320e-01 4.700000e-01 0.000000e+00
2.077990e-01 4.142150e-01 0.000000e+00
2.077320e-01 4.700000e-01 0.000000e+00
2.493570e-01 4.143230e-01 0.000000e+00
2.492770e-01 4.700000e-01 0.000000e+00
2.493570e-01 4.143230e-01 0.000000e+00
2.492770e-01 4.700000e-01 0.000000e+00
2.909130e-01 4.144500e-01 0.000000e+00
2.908190e-01 4.700000e-01 0.000000e+00
2.909130e-01 4.144500e-01 0.000000e+00
2.908190e-01 4.700000e-01 0.000000e+00
3.324680e-01 4.145970e-01 0.000000e+00
3.323620e-01 4.700000e-01 0.000000e+00
3.324680e-01 4.145970e-01 0.000000e+00
3.323620e-01 4.700000e-01 0.000000e+00
3.740220e-01 4.147630e-01 0.000000e+00
3.739020e-01 4.700000e-01 0.000000e+00
3.740220e-01 4.147630e-01 0.000000e+00
3.739020e-01 4.700000e-01 0.000000e+00
4.155730e-01 4.149470e-01 0.000000e+00
4.154410e-01 4.700000e-01 0.000000e+00
4.155730e-01 4.149470e-01 0.000000e+00
4.154410e-01 4.700000e-01 0.000000e+00
4.571220e-01 4.151500e-01 0.000000e+00
4.569780e-01 4.700000e-01 0.000000e+00
4.571220e-01 4.151500e-01 0.000000e+00
4.569780e-01 4.700000e-01 0.000000e+00
4.986680e-01 4.153720e-01 0.000000e+00
4.985110e-01 4.700000e-01 0.000000e+00
4.986680e-01 4.153720e-01 0.000000e+00
4.985110e-01 4.700000e-01 0.000000e+00
5.402110e-01 4.156120e-01 0.000000e+00
5.400420e-01 4.700000e-01 0.000000e+00
5.402110e-01 4.156120e-01 0.000000e+00
5.400420e-01 4.700000e-01 0.000000e+00
5.817490e-01 4.158700e-01 0.000000e+00
5.815680e-01 4.700000e-01 0.000000e+00
5.817490e-01 4.158700e-01 0.000000e+00
5.815680e-01 4.700000e-01 0.000000e+00
6.232820e-01 4.161460e-01 0.000000e+00
6.230900e-01 4.700000e-01 0.000000e+00
6.232820e-01 4.161460e-01 0.000000e+00
6.230900e-01 4.700000e-01 0.000000e+00
6.648100e-01 4.164390e-01 0.000000e+00
6.646070e-01 4.700000e-01 0.000000e+00
6.648100e-01 4.164390e-01 0.000000e+00
6.646070e-01 4.700000e-01 0.000000e+00
7.063320e-01 4.167490e-01 0.000000e+00
7.061170e-01 4.700000e-01 0.000000e+00
7.063320e-01 4.167490e-01 0.000000e+00
7.061170e-01 4.700000e-01 0.000000e+00
7.478450e-01 4.170760e-01 0.000000e+00
7.476210e-01 4.700000e-01 0.000000e+00
7.478450e-01 4.170760e-01 0.000000e+00
7.476210e-01 4.700000e-01 0.000000e+00
7.893510e-01 4.174190e-01 0.000000e+00
7.891160e-01 4.700000e-01 0.000000e+00
7.893510e-01 4.174190e-01 0.000000e+00
7.891160e-01 4.700000e-01 0.000000e+00
8.308450e-01 4.177780e-01 0.000000e+00
8.306000e-01 4.700000e-01 0.000000e+00
8.308450e-01 4.177780e-01 0.000000e+00
8.306000e-01 4.700000e-01 0.000000e+00
8.723290e-01 4.181530e-01 0.000000e+00
8.720740e-01 4.700000e-01 0.000000e+00
8.723290e-01 4.181530e-01 0.000000e+00
8.720740e-01 4.700000e-01 0.000000e+00
9.138000e-01 4.185430e-01 0.000000e+00
9.135360e-01 4.700000e-01 0.000000e+00
9.138000e-01 4.185430e-01 0.000000e+00
9.135360e-01 4.700000e-01 0.000000e+00
9.552560e-01 4.189470e-01 0.000000e+00
9.549840e-01 4.700000e-01 0.000000e+00
9.552560e-01 4.189470e-01 0.000000e+00
9.549840e-01 4.700000e-01 0.000000e+00
9.966960e-01 4.193670e-01 0.000000e+00
9.964170e-01 4.700000e-01 0.000000e+00
9.966960e-01 4.193670e-01 0.000000e+00
9.964170e-01 4.700000e-01 0.000000e+00
1.038120e+00 4.198010e-01 0.000000e+00
1.037830e+00 4.700000e-01 0.000000e+00
1.038120e+00 4.198010e-01 0.000000e+00
1.037830e+00 4.700000e-01 0.000000e+00
1.079510e+00 4.202500e-01 0.000000e+00
1.079240e+00 4.700000e-01 0.000000e+00
1.079510e+00 4.202500e-01 0.000000e+00
1.079240e+00 4.700000e-01 0.000000e+00
1.120860e+00 4.207190e-01 0.000000e+00
1.120660e+00 4.700000e-01 0.000000e+00
1.120860e+00 4.207190e-01 0.000000e+00
1.120660e+00 4.700000e-01 0.000000e+00
1.162130e+00 4.212070e-01 0.000000e+00
1.162130e+00 4.700000e-01 0.000000e+00
1.162130e+00 4.212070e-01 0.000000e+00
1.162130e+00 4.700000e-01 0.000000e+00
1.203200e+00 4.217030e-01 0.000000e+00
1.203770e+00 4.700000e-01 0.000000e+00
1.203200e+00 4.217030e-01 0.000000e+00
1.203770e+00 4.700000e-01 0.000000e+00
1.243790e+00 4.221110e-01 0.000000e+00
1.245730e+00 4.700000e-01 0.000000e+00
1.243790e+00 4.221110e-01 0.000000e+00
1.245730e+00 4.700000e-01 0.000000e+00
1.283370e+00 4.219830e-01 0.000000e+00
1.287990e+00 4.700000e-01 0.000000e+00
1.283370e+00 4.219830e-01 0.000000e+00
1.287990e+00 4.700000e-01 0.000000e+00
1.321900e+00 4.199580e-01 0.000000e+00
1.329200e+00 4.685040e-01 0.000000e+00
1.321900e+00 4.199580e-01 0.000000e+00
1.329200e+00 4.685040e-01 0.000000e+00
1.358960e+00 4.144020e-01 0.000000e+00
1.369940e+00 4.616870e-01 0.000000e+00
1.358960e+00 4.144020e-01 0.000000e+00
1.369940e+00 4.616870e-01 0.000000e+00
1.394820e+00 4.049860e-01 0.000000e+00
1.410060e+00 4.505190e-01 0.000000e+00
1.394820e+00 4.049860e-01 0.000000e+00
1.410060e+00 4.505190e-01 0.000000e+00
1.429380e+00 3.918420e-01 0.000000e+00
1.448850e+00 4.351830e-01 0.000000e+00
1.429380e+00 3.918420e-01 0.000000e+00
1.448850e+00 4.351830e-01 0.000000e+00
1.462430e+00 3.751760e-01 0.000000e+00
1.485870e+00 4.159610e-01 0.000000e+00
1.462430e+00 3.751760e-01 0.000000e+00
1.485870e+00 4.159610e-01 0.000000e+00
1.493690e+00 3.552500e-01 0.000000e+00
1.520740e+00 3.931990e-01 0.000000e+00
1.493690e+00 3.552500e-01 0.000000e+00
1.520740e+00 3.931990e-01 0.000000e+00
1.522940e+00 3.323250e-01 0.000000e+00
1.553210e+00 3.672240e-01 0.000000e+00
1.522940e+00 3.323250e-01 0.000000e+00
1.553210e+00 3.672240e-01 0.000000e+00
1.549940e+00 3.066950e-01 0.000000e+00
1.583060e+00 3.383870e-01 0.000000e+00
1.549940e+00 3.066950e-01 0.000000e+00
1.583060e+00 3.383870e-01 0.000000e+00
1.574540e+00 2.786300e-01 0.000000e+00
1.610120e+00 3.069960e-01 0.000000e+00
1.574540e+00 2.786300e-01 0.000000e+00
1.610120e+00 3.069960e-01 0.000000e+00
1.596560e+00 2.484310e-01 0.000000e+00
1.634270e+00 2.733830e-01 0.000000e+00
1.596560e+00 2.484310e-01 0.000000e+00
1.634270e+00 2.733830e-01 0.000000e+00
1.615880e+00 2.163570e-01 0.000000e+00
1.655390e+00 2.378310e-01 0.000000e+00
1.615880e+00 2.163570e-01 0.000000e+00
1.655390e+00 2.378310e-01 0.000000e+00
1.632400e+00 1.827050e-01 0.000000e+00
1.673390e+00 2.006560e-01 0.000000e+00
1.632400e+00 1.827050e-01 0.000000e+00
1.673390e+00 2.006560e-01 0.000000e+00
1.646020e+00 1.477270e-01 0.000000e+00
1.688220e+00 1.621200e-01 0.000000e+00
1.646020e+00 1.477270e-01 0.000000e+00
1.688220e+00 1.621200e-01 0.000000e+00
1.656680e+00 1.117120e-01 0.000000e+00
1.699790e+00 1.225240e-01 0.000000e+00
1.656680e+00 1.117120e-01 0.000000e+00
1.699790e+00 1.225240e-01 0.000000e+00
1.664330e+00 7.490250e-02 0.000000e+00
1.708100e+00 8.211810e-02 0.000000e+00
1.664330e+00 7.490250e-02 0.000000e+00
1.708100e+00 8.211810e-02 0.000000e+00
1.668940e+00 3.758380e-02 0.000000e+00
1.713090e+00 4.119430e-02 0.000000e+00
1.668940e+00 3.758380e-02 0.000000e+00
1.713090e+00 4.119430e-02 0.000000e+00
1.670470e+00 -6.135990e-06 0.000000e+00
1.714750e+00 -6.298630e-06 0.000000e+00
</DataArray>
</Points>
<Cells>
<DataArray type="Int32" Name="connectivity" format="ascii">
0 1 3 2
4 5 7 6
8 9 11 10
12 13 15 14
16 17 19 18
20 21 23 22
24 25 27 26
28 29 31 30
32 33 35 34
36 37 39 38
40 41 43 42
44 45 47 46
48 49 51 50
52 53 55 54
56 57 59 58
60 61 63 62
64 65 67 66
68 69 71 70
72 73 75 74
76 77 79 78
80 81 83 82
84 85 87 86
88 89 91 90
92 93 95 94
96 97 99 98
100 101 103 102
104 105 107 106
108 109 111 110
112 113 115 114
116 117 119 118
120 121 123 122
124 125 127 126
128 129 131 130
132 133 135 134
136 137 139 138
140 141 143 142
144 145 147 146
148 149 151 150
152 153 155 154
156 157 159 158
160 161 163 162
164 165 167 166
168 169 171 170
172 173 175 174
176 177 179 178
180 181 183 182
184 185 187 186
188 189 191 190
</DataArray>
<DataArray type="Int32" Name="offsets" format="ascii">
4
8
12
16
20
24
28
32
36
40
44
48
52
56
60
64
68
72
76
80
84
88
92
96
100
104
108
112
116
120
124
128
132
136
140
144
148
152
156
160
164
168
172
176
180
184
188
192
</DataArray>
<DataArray type="UInt8" Name="types" format="ascii">
9
9
9
9
9
9
9
9
9
9
9
9
9
9
9
9
9
9
9
9
9
9
9
9
9
9
9
9
9
9
9
9
9
9
9
9
9
9
9
9
9
9
9
9
9
9
9
9
</DataArray>
</Cells>
<PointData>
<DataArray type="Float32" Name="V1" format="ascii">
6.273400e+00
3.209470e+00
6.276420e+00
3.212490e+00
6.277320e+00
3.211990e+00
6.284590e+00
3.219270e+00
6.286330e+00
3.218190e+00
6.298800e+00
3.230650e+00
6.301210e+00
3.228820e+00
6.318830e+00
3.246440e+00
6.321940e+00
3.243880e+00
6.344720e+00
3.266660e+00
6.348570e+00
3.263390e+00
6.376530e+00
3.291350e+00
6.381140e+00
3.287370e+00
6.414320e+00
3.320550e+00
6.419700e+00
3.315850e+00
6.458140e+00
3.354300e+00
6.464320e+00
3.348870e+00
6.508090e+00
3.392640e+00
6.515070e+00
3.386480e+00
6.564240e+00
3.435640e+00
6.572050e+00
3.428720e+00
6.626690e+00
3.483360e+00
6.635360e+00
3.475660e+00
6.695560e+00
3.535860e+00
6.705110e+00
3.527370e+00
6.770960e+00
3.593220e+00
6.781420e+00
3.583910e+00
6.853030e+00
3.655520e+00
6.864430e+00
3.645380e+00
6.941920e+00
3.722870e+00
6.954290e+00
3.711850e+00
7.037790e+00
3.795350e+00
7.051160e+00
3.783440e+00
7.140810e+00
3.873090e+00
7.155230e+00
3.860250e+00
7.251170e+00
3.956190e+00
7.266670e+00
3.942390e+00
7.369070e+00
4.044790e+00
7.385690e+00
4.030000e+00
7.494720e+00
4.139020e+00
7.512520e+00
4.123190e+00
7.628380e+00
4.239050e+00
7.647400e+00
4.222140e+00
7.770270e+00
4.345010e+00
7.790550e+00
4.327000e+00
7.920650e+00
4.457110e+00
7.942160e+00
4.438020e+00
8.079710e+00
4.575570e+00
8.102180e+00
4.555650e+00
8.247390e+00
4.700850e+00
8.269780e+00
4.681020e+00
8.422810e+00
4.834050e+00
8.441620e+00
4.817390e+00
8.602630e+00
4.978410e+00
8.607290e+00
4.974160e+00
8.776590e+00
5.143470e+00
8.737990e+00
5.177030e+00
8.917210e+00
5.356250e+00
8.763590e+00
5.490140e+00
8.960820e+00
5.687370e+00
8.547790e+00
6.047730e+00
8.794670e+00
6.294620e+00
8.045520e+00
7.008730e+00
8.324050e+00
7.287260e+00
7.847360e+00
7.680330e+00
8.046290e+00
7.879260e+00
7.884600e+00
8.022650e+00
8.084350e+00
8.222390e+00
8.037340e+00
8.264690e+00
8.234230e+00
8.461580e+00
8.237010e+00
8.459390e+00
8.427970e+00
8.650350e+00
8.451530e+00
8.629670e+00
8.633950e+00
8.812090e+00
8.665130e+00
8.784550e+00
8.837020e+00
8.956430e+00
8.869930e+00
8.927410e+00
9.029470e+00
9.086950e+00
9.061290e+00
9.058840e+00
9.207130e+00
9.204680e+00
9.236610e+00
9.178720e+00
9.367520e+00
9.309640e+00
9.393920e+00
9.286360e+00
9.509030e+00
9.401470e+00
9.532040e+00
9.381230e+00
9.630550e+00
9.479740e+00
9.649920e+00
9.462680e+00
9.731270e+00
9.544030e+00
9.746900e+00
9.530300e+00
9.810610e+00
9.594000e+00
9.822380e+00
9.583640e+00
9.868120e+00
9.629380e+00
9.876010e+00
9.622460e+00
9.903540e+00
9.649990e+00
9.907490e+00
9.646520e+00
9.916680e+00
9.655710e+00
</DataArray>
<DataArray type="Float32" Name="V2" format="ascii">
4.139680e-01
4.700000e-01
4.151170e-01
4.711080e-01
4.151170e-01
4.711080e-01
4.185580e-01
4.744280e-01
4.185580e-01
4.744280e-01
4.242840e-01
4.799540e-01
4.242840e-01
4.799540e-01
4.322820e-01
4.876710e-01
4.322820e-01
4.876710e-01
4.425320e-01
4.975610e-01
4.425320e-01
4.975610e-01
4.550090e-01
5.096010e-01
4.550090e-01
5.096010e-01
4.696830e-01
5.237600e-01
4.696830e-01
5.237600e-01
4.865190e-01
5.400070e-01
4.865190e-01
5.400070e-01
5.054760e-01
5.583000e-01
5.054760e-01
5.583000e-01
5.265080e-01
5.785960e-01
5.265080e-01
5.785960e-01
5.495630e-01
6.008460e-01
5.495630e-01
6.008460e-01
5.745860e-01
6.249950e-01
5.745860e-01
6.249950e-01
6.015150e-01
6.509850e-01
6.015150e-01
6.509850e-01
6.302840e-01
6.787510e-01
6.302840e-01
6.787510e-01
6.608210e-01
7.082260e-01
6.608210e-01
7.082260e-01
6.930520e-01
7.393360e-01
6.930520e-01
7.393360e-01
7.268950e-01
7.720030e-01
7.268950e-01
7.720030e-01
7.622670e-01
8.061470e-01
7.622670e-01
8.061470e-01
7.990770e-01
8.416800e-01
7.990770e-01
8.416800e-01
8.372320e-01
8.785130e-01
8.372320e-01
8.785130e-01
8.766360e-01
9.165530e-01
8.766360e-01
9.165530e-01
9.171870e-01
9.557010e-01
9.171870e-01
9.557010e-01
9.587800e-01
9.958560e-01
9.587800e-01
9.958560e-01
1.001310e+00
1.036910e+00
1.001310e+00
1.036910e+00
1.044660e+00
1.078770e+00
1.044660e+00
1.078770e+00
1.088710e+00
1.121310e+00
1.088710e+00
1.121310e+00
1.133340e+00
1.164450e+00
1.133340e+00
1.164450e+00
1.178390e+00
1.208100e+00
1.178390e+00
1.208100e+00
1.223650e+00
1.252240e+00
1.223650e+00
1.252240e+00
1.268690e+00
1.296900e+00
1.268690e+00
1.296900e+00
1.312670e+00
1.341960e+00
1.312670e+00
1.341960e+00
1.354780e+00
1.385380e+00
1.354780e+00
1.385380e+00
1.393850e+00
1.425810e+00
1.393850e+00
1.425810e+00
1.430100e+00
1.463900e+00
1.430100e+00
1.463900e+00
1.463690e+00
1.499310e+00
1.463690e+00
1.499310e+00
1.494680e+00
1.531950e+00
1.494680e+00
1.531950e+00
1.523090e+00
1.561780e+00
1.523090e+00
1.561780e+00
1.548940e+00
1.588820e+00
1.548940e+00
1.588820e+00
1.572230e+00
1.613120e+00
1.572230e+00
1.613120e+00
1.593000e+00
1.634720e+00
1.593000e+00
1.634720e+00
1.611260e+00
1.653650e+00
1.611260e+00
1.653650e+00
1.627040e+00
1.669980e+00
1.627040e+00
1.669980e+00
1.640350e+00
1.683730e+00
1.640350e+00
1.683730e+00
1.651220e+00
1.694930e+00
1.651220e+00
1.694930e+00
1.659650e+00
1.703620e+00
1.659650e+00
1.703620e+00
1.665670e+00
1.709810e+00
1.665670e+00
1.709810e+00
1.669270e+00
1.713520e+00
1.669270e+00
1.713520e+00
1.670470e+00
1.714750e+00
</DataArray>
<DataArray type="Float32" Name="V3" format="ascii">
0.000000e+00
0.000000e+00
2.799310e-02
2.614670e-02
2.799310e-02
2.614670e-02
5.586530e-02
5.217630e-02
5.586530e-02
5.217630e-02
8.349570e-02
7.797200e-02
8.349570e-02
7.797200e-02
1.107640e-01
1.034180e-01
1.107640e-01
1.034180e-01
1.375500e-01
1.283970e-01
1.375500e-01
1.283970e-01
1.637360e-01
1.527940e-01
1.637360e-01
1.527940e-01
1.892020e-01
1.764970e-01
1.892020e-01
1.764970e-01
2.138340e-01
1.993920e-01
2.138340e-01
1.993920e-01
2.375180e-01
2.213690e-01
2.375180e-01
2.213690e-01
2.601390e-01
2.423170e-01
2.601390e-01
2.423170e-01
2.815870e-01
2.621310e-01
2.815870e-01
2.621310e-01
3.017530e-01
2.807030e-01
3.017530e-01
2.807030e-01
3.205320e-01
2.979320e-01
3.205320e-01
2.979320e-01
3.378200e-01
3.137170e-01
3.378200e-01
3.137170e-01
3.535160e-01
3.279600e-01
3.535160e-01
3.279600e-01
3.675230e-01
3.405660e-01
3.675230e-01
3.405660e-01
3.797460e-01
3.514440e-01
3.797460e-01
3.514440e-01
3.900950e-01
3.605060e-01
3.900950e-01
3.605060e-01
3.984830e-01
3.676650e-01
3.984830e-01
3.676650e-01
4.048260e-01
3.728420e-01
4.048260e-01
3.728420e-01
4.090460e-01
3.759580e-01
4.090460e-01
3.759580e-01
4.110670e-01
3.769400e-01
4.110670e-01
3.769400e-01
4.108180e-01
3.757200e-01
4.108180e-01
3.757200e-01
4.082340e-01
3.722330e-01
4.082340e-01
3.722330e-01
4.032500e-01
3.664200e-01
4.032500e-01
3.664200e-01
3.958080e-01
3.582300e-01
3.958080e-01
3.582300e-01
3.858460e-01
3.476240e-01
3.858460e-01
3.476240e-01
3.732910e-01
3.345850e-01
3.732910e-01
3.345850e-01
3.580540e-01
3.191280e-01
3.580540e-01
3.191280e-01
3.400400e-01
3.012980e-01
3.400400e-01
3.012980e-01
3.193590e-01
2.810270e-01
3.193590e-01
2.810270e-01
2.972520e-01
2.588620e-01
2.972520e-01
2.588620e-01
2.751450e-01
2.386150e-01
2.751450e-01
2.386150e-01
2.536910e-01
2.195890e-01
2.536910e-01
2.195890e-01
2.330050e-01
2.015640e-01
2.330050e-01
2.015640e-01
2.130260e-01
1.843180e-01
2.130260e-01
1.843180e-01
1.936750e-01
1.676880e-01
1.936750e-01
1.676880e-01
1.748390e-01
1.515240e-01
1.748390e-01
1.515240e-01
1.564390e-01
1.357240e-01
1.564390e-01
1.357240e-01
1.383800e-01
1.201910e-01
1.383800e-01
1.201910e-01
1.206030e-01
1.048650e-01
1.206030e-01
1.048650e-01
1.030380e-01
8.968440e-02
1.030380e-01
8.968440e-02
8.564760e-02
7.461550e-02
8.564760e-02
7.461550e-02
6.837980e-02
5.961800e-02
6.837980e-02
5.961800e-02
5.121170e-02
4.467740e-02
5.121170e-02
4.467740e-02
3.410460e-02
2.976650e-02
3.410460e-02
2.976650e-02
1.704470e-02
1.488070e-02
1.704470e-02
1.488070e-02
0.000000e+00
0.000000e+00
</DataArray>
<DataArray type="Float32" Name="V4" format="ascii">
9.000000e-01
1.000000e+00
9.000000e-01
1.000000e+00
9.000000e-01
1.000000e+00
9.000000e-01
1.000000e+00
9.000000e-01
1.000000e+00
9.000000e-01
1.000000e+00
9.000000e-01
1.000000e+00
9.000000e-01
1.000000e+00
9.000000e-01
1.000000e+00
9.000000e-01
1.000000e+00
9.000000e-01
1.000000e+00
9.000000e-01
1.000000e+00
9.000000e-01
1.000000e+00
9.000000e-01
1.000000e+00
9.000000e-01
1.000000e+00
9.000000e-01
1.000000e+00
9.000000e-01
1.000000e+00
9.000000e-01
1.000000e+00
9.000000e-01
1.000000e+00
9.000000e-01
1.000000e+00
9.000000e-01
1.000000e+00
9.000000e-01
1.000000e+00
9.000000e-01
1.000000e+00
9.000000e-01
1.000000e+00
9.000000e-01
1.000000e+00
9.000000e-01
1.000000e+00
9.000000e-01
1.000000e+00
9.000000e-01
1.000000e+00
9.000000e-01
1.000000e+00
9.000000e-01
1.000000e+00
9.000000e-01
1.000000e+00
9.000000e-01
1.000000e+00
9.000000e-01
1.000000e+00
9.000000e-01
1.000000e+00
9.000000e-01
1.000000e+00
9.000000e-01
1.000000e+00
9.000000e-01
1.000000e+00
9.000000e-01
1.000000e+00
9.000000e-01
1.000000e+00
9.000000e-01
1.000000e+00
9.000000e-01
1.000000e+00
9.000000e-01
1.000000e+00
9.000000e-01
1.000000e+00
9.000000e-01
1.000000e+00
9.000000e-01
1.000000e+00
9.000000e-01
1.000000e+00
9.000000e-01
1.000000e+00
9.000000e-01
1.000000e+00
9.000000e-01
1.000000e+00
9.000000e-01
1.000000e+00
9.000000e-01
1.000000e+00
9.000000e-01
1.000000e+00
9.000000e-01
1.000000e+00
9.000000e-01
1.000000e+00
9.000000e-01
1.000000e+00
9.000000e-01
1.000000e+00
9.000000e-01
1.000000e+00
9.000000e-01
1.000000e+00
9.000000e-01
1.000000e+00
9.000000e-01
1.000000e+00
9.000000e-01
1.000000e+00
9.000000e-01
1.000000e+00
9.000000e-01
1.000000e+00
9.000000e-01
1.000000e+00
9.000000e-01
1.000000e+00
9.000000e-01
1.000000e+00
9.000000e-01
1.000000e+00
9.000000e-01
1.000000e+00
9.000000e-01
1.000000e+00
9.000000e-01
1.000000e+00
9.000000e-01
1.000000e+00
9.000000e-01
1.000000e+00
9.000000e-01
1.000000e+00
9.000000e-01
1.000000e+00
9.000000e-01
1.000000e+00
9.000000e-01
1.000000e+00
9.000000e-01
1.000000e+00
9.000000e-01
1.000000e+00
9.000000e-01
1.000000e+00
9.000000e-01
1.000000e+00
9.000000e-01
1.000000e+00
9.000000e-01
1.000000e+00
9.000000e-01
1.000000e+00
9.000000e-01
1.000000e+00
9.000000e-01
1.000000e+00
9.000000e-01
1.000000e+00
9.000000e-01
1.000000e+00
9.000000e-01
1.000000e+00
9.000000e-01
1.000000e+00
9.000000e-01
1.000000e+00
9.000000e-01
1.000000e+00
9.000000e-01
1.000000e+00
9.000000e-01
1.000000e+00
9.000000e-01
1.000000e+00
9.000000e-01
1.000000e+00
9.000000e-01
1.000000e+00
</DataArray>
<DataArray type="Float32" Name="V5" format="ascii">
0.000000e+00
0.000000e+00
3.272490e-02
3.272490e-02
3.272490e-02
3.272490e-02
6.544980e-02
6.544980e-02
6.544980e-02
6.544980e-02
9.817480e-02
9.817480e-02
9.817480e-02
9.817480e-02
1.309000e-01
1.309000e-01
1.309000e-01
1.309000e-01
1.636250e-01
1.636250e-01
1.636250e-01
1.636250e-01
1.963500e-01
1.963500e-01
1.963500e-01
1.963500e-01
2.290740e-01
2.290740e-01
2.290740e-01
2.290740e-01
2.617990e-01
2.617990e-01
2.617990e-01
2.617990e-01
2.945240e-01
2.945240e-01
2.945240e-01
2.945240e-01
3.272490e-01
3.272490e-01
3.272490e-01
3.272490e-01
3.599740e-01
3.599740e-01
3.599740e-01
3.599740e-01
3.926990e-01
3.926990e-01
3.926990e-01
3.926990e-01
4.254240e-01
4.254240e-01
4.254240e-01
4.254240e-01
4.581490e-01
4.581490e-01
4.581490e-01
4.581490e-01
4.908740e-01
4.908740e-01
4.908740e-01
4.908740e-01
5.235990e-01
5.235990e-01
5.235990e-01
5.235990e-01
5.563240e-01
5.563240e-01
5.563240e-01
5.563240e-01
5.890490e-01
5.890490e-01
5.890490e-01
5.890490e-01
6.217740e-01
6.217740e-01
6.217740e-01
6.217740e-01
6.544980e-01
6.544980e-01
6.544980e-01
6.544980e-01
6.872230e-01
6.872230e-01
6.872230e-01
6.872230e-01
7.199480e-01
7.199480e-01
7.199480e-01
7.199480e-01
7.526730e-01
7.526730e-01
7.526730e-01
7.526730e-01
7.853980e-01
7.853980e-01
7.853980e-01
7.853980e-01
8.181230e-01
8.181230e-01
8.181230e-01
8.181230e-01
8.508480e-01
8.508480e-01
8.508480e-01
8.508480e-01
8.835730e-01
8.835730e-01
8.835730e-01
8.835730e-01
9.162980e-01
9.162980e-01
9.162980e-01
9.162980e-01
9.490230e-01
9.490230e-01
9.490230e-01
9.490230e-01
9.817480e-01
9.817480e-01
9.817480e-01
9.817480e-01
1.014470e+00
1.014470e+00
1.014470e+00
1.014470e+00
1.047200e+00
1.047200e+00
1.047200e+00
1.047200e+00
1.079920e+00
1.079920e+00
1.079920e+00
1.079920e+00
1.112650e+00
1.112650e+00
1.112650e+00
1.112650e+00
1.145370e+00
1.145370e+00
1.145370e+00
1.145370e+00
1.178100e+00
1.178100e+00
1.178100e+00
1.178100e+00
1.210820e+00
1.210820e+00
1.210820e+00
1.210820e+00
1.243550e+00
1.243550e+00
1.243550e+00
1.243550e+00
1.276270e+00
1.276270e+00
1.276270e+00
1.276270e+00
1.309000e+00
1.309000e+00
1.309000e+00
1.309000e+00
1.341720e+00
1.341720e+00
1.341720e+00
1.341720e+00
1.374450e+00
1.374450e+00
1.374450e+00
1.374450e+00
1.407170e+00
1.407170e+00
1.407170e+00
1.407170e+00
1.439900e+00
1.439900e+00
1.439900e+00
1.439900e+00
1.472620e+00
1.472620e+00
1.472620e+00
1.472620e+00
1.505350e+00
1.505350e+00
1.505350e+00
1.505350e+00
1.538070e+00
1.538070e+00
1.538070e+00
1.538070e+00
1.570800e+00
1.570800e+00
</DataArray>
</PointData>
</Piece></UnstructuredGrid>
</VTKFile>
