<?xml version="1.0"?>
<VTKFile type="UnstructuredGrid" version="0.1" byte_order="LittleEndian" compressor="vtkZLibDataCompressor">
<UnstructuredGrid>
<Piece NumberOfPoints="192" NumberOfCells="48">
<Points>
<DataArray type="Float32" NumberOfComponents="3" format="ascii">
0.000000e+00 8.084620e-01 0.000000e+00
0.000000e+00 9.100000e-01 0.000000e+00
3.090370e-02 8.084910e-01 0.000000e+00
3.086390e-02 9.100000e-01 0.000000e+00
3.090370e-02 8.084910e-01 0.000000e+00
3.086390e-02 9.100000e-01 0.000000e+00
6.179420e-02 8.085820e-01 0.000000e+00
6.175140e-02 9.100000e-01 0.000000e+00
6.179420e-02 8.085820e-01 0.000000e+00
6.175140e-02 9.100000e-01 0.000000e+00
9.264840e-02 8.087400e-01 0.000000e+00
9.269490e-02 9.100000e-01 0.000000e+00
9.264840e-02 8.087400e-01 0.000000e+00
9.269490e-02 9.100000e-01 0.000000e+00
1.234220e-01 8.089660e-01 0.000000e+00
1.237420e-01 9.100000e-01 0.000000e+00
1.234220e-01 8.089660e-01 0.000000e+00
1.237420e-01 9.100000e-01 0.000000e+00
1.540360e-01 8.092370e-01 0.000000e+00
1.549600e-01 9.100000e-01 0.000000e+00
1.540360e-01 8.092370e-01 0.000000e+00
1.549600e-01 9.100000e-01 0.000000e+00
1.843690e-01 8.094670e-01 0.000000e+00
1.864250e-01 9.100000e-01 0.000000e+00
1.843690e-01 8.094670e-01 0.000000e+00
1.864250e-01 9.100000e-01 0.000000e+00
2.142880e-01 8.094440e-01 0.000000e+00
2.181940e-01 9.100000e-01 0.000000e+00
2.142880e-01 8.094440e-01 0.000000e+00
2.181940e-01 9.100000e-01 0.000000e+00
2.438230e-01 8.089100e-01 0.000000e+00
2.502140e-01 9.097200e-01 0.000000e+00
2.438230e-01 8.089100e-01 0.000000e+00
2.502140e-01 9.097200e-01 0.000000e+00
2.729050e-01 8.075330e-01 0.000000e+00
2.824460e-01 9.080080e-01 0.000000e+00
2.729050e-01 8.075330e-01 0.000000e+00
2.824460e-01 9.080080e-01 0.000000e+00
3.015280e-01 8.050740e-01 0.000000e+00
3.148490e-01 9.048940e-01 0.000000e+00
3.015280e-01 8.050740e-01 0.000000e+00
3.148490e-01 9.048940e-01 0.000000e+00
3.297560e-01 8.013530e-01 0.000000e+00
3.472820e-01 9.002800e-01 0.000000e+00
3.297560e-01 8.013530e-01 0.000000e+00
3.472820e-01 9.002800e-01 0.000000e+00
3.576040e-01 7.962850e-01 0.000000e+00
3.795940e-01 8.940760e-01 0.000000e+00
3.576040e-01 7.962850e-01 0.000000e+00
3.795940e-01 8.940760e-01 0.000000e+00
3.850610e-01 7.898280e-01 0.000000e+00
4.116400e-01 8.862410e-01 0.000000e+00
3.850610e-01 7.898280e-01 0.000000e+00
4.116400e-01 8.862410e-01 0.000000e+00
4.121000e-01 7.819680e-01 0.000000e+00
4.432900e-01 8.767710e-01 0.000000e+00
4.121000e-01 7.819680e-01 0.000000e+00
4.432900e-01 8.767710e-01 0.000000e+00
4.386880e-01 7.727140e-01 0.000000e+00
4.744280e-01 8.656940e-01 0.000000e+00
4.386880e-01 7.727140e-01 0.000000e+00
4.744280e-01 8.656940e-01 0.000000e+00
4.647890e-01 7.620920e-01 0.000000e+00
5.049580e-01 8.530640e-01 0.000000e+00
4.647890e-01 7.620920e-01 0.000000e+00
5.049580e-01 8.530640e-01 0.000000e+00
4.903670e-01 7.501440e-01 0.000000e+00
5.348000e-01 8.389490e-01 0.000000e+00
4.903670e-01 7.501440e-01 0.000000e+00
5.348000e-01 8.389490e-01 0.000000e+00
5.153870e-01 7.369190e-01 0.000000e+00
5.638920e-01 8.234250e-01 0.000000e+00
5.153870e-01 7.369190e-01 0.000000e+00
5.638920e-01 8.234250e-01 0.000000e+00
5.398160e-01 7.224740e-01 0.000000e+00
5.921860e-01 8.065740e-01 0.000000e+00
5.398160e-01 7.224740e-01 0.000000e+00
5.921860e-01 8.065740e-01 0.000000e+00
5.636260e-01 7.068700e-01 0.000000e+00
6.196470e-01 7.884810e-01 0.000000e+00
5.636260e-01 7.068700e-01 0.000000e+00
6.196470e-01 7.884810e-01 0.000000e+00
5.867910e-01 6.901660e-01 0.000000e+00
6.462490e-01 7.692240e-01 0.000000e+00
5.867910e-01 6.901660e-01 0.000000e+00
6.462490e-01 7.692240e-01 0.000000e+00
6.092890e-01 6.724270e-01 0.000000e+00
6.719740e-01 7.488810e-01 0.000000e+00
6.092890e-01 6.724270e-01 0.000000e+00
6.719740e-01 7.488810e-01 0.000000e+00
6.310970e-01 6.537110e-01 0.000000e+00
6.968110e-01 7.275240e-01 0.000000e+00
6.310970e-01 6.537110e-01 0.000000e+00
6.968110e-01 7.275240e-01 0.000000e+00
6.521980e-01 6.340770e-01 0.000000e+00
7.207530e-01 7.052200e-01 0.000000e+00
6.521980e-01 6.340770e-01 0.000000e+00
7.207530e-01 7.052200e-01 0.000000e+00
6.725760e-01 6.135810e-01 0.000000e+00
7.437940e-01 6.820290e-01 0.000000e+00
6.725760e-01 6.135810e-01 0.000000e+00
7.437940e-01 6.820290e-01 0.000000e+00
6.922150e-01 5.922770e-01 0.000000e+00
7.659300e-01 6.580090e-01 0.000000e+00
6.922150e-01 5.922770e-01 0.000000e+00
7.659300e-01 6.580090e-01 0.000000e+00
7.111000e-01 5.702140e-01 0.000000e+00
7.871590e-01 6.332100e-01 0.000000e+00
7.111000e-01 5.702140e-01 0.000000e+00
7.871590e-01 6.332100e-01 0.000000e+00
7.292180e-01 5.474400e-01 0.000000e+00
8.074760e-01 6.076800e-01 0.000000e+00
7.292180e-01 5.474400e-01 0.000000e+00
8.074760e-01 6.076800e-01 0.000000e+00
7.465560e-01 5.240000e-01 0.000000e+00
8.268770e-01 5.814640e-01 0.000000e+00
7.465560e-01 5.240000e-01 0.000000e+00
8.268770e-01 5.814640e-01 0.000000e+00
7.631010e-01 4.999350e-01 0.000000e+00
8.453580e-01 5.546010e-01 0.000000e+00
7.631010e-01 4.999350e-01 0.000000e+00
8.453580e-01 5.546010e-01 0.000000e+00
7.788390e-01 4.752860e-01 0.000000e+00
8.629120e-01 5.271300e-01 0.000000e+00
7.788390e-01 4.752860e-01 0.000000e+00
8.629120e-01 5.271300e-01 0.000000e+00
7.937590e-01 4.500910e-01 0.000000e+00
8.795320e-01 4.990890e-01 0.000000e+00
7.937590e-01 4.500910e-01 0.000000e+00
8.795320e-01 4.990890e-01 0.000000e+00
8.078490e-01 4.243870e-01 0.000000e+00
8.952110e-01 4.705110e-01 0.000000e+00
8.078490e-01 4.243870e-01 0.000000e+00
8.952110e-01 4.705110e-01 0.000000e+00
8.210960e-01 3.982080e-01 0.000000e+00
9.099400e-01 4.414310e-01 0.000000e+00
8.210960e-01 3.982080e-01 0.000000e+00
9.099400e-01 4.414310e-01 0.000000e+00
8.334890e-01 3.715890e-01 0.000000e+00
9.237100e-01 4.118820e-01 0.000000e+00
8.334890e-01 3.715890e-01 0.000000e+00
9.237100e-01 4.118820e-01 0.000000e+00
8.450160e-01 3.445630e-01 0.000000e+00
9.365120e-01 3.818960e-01 0.000000e+00
8.450160e-01 3.445630e-01 0.000000e+00
9.365120e-01 3.818960e-01 0.000000e+00
8.556660e-01 3.171620e-01 0.000000e+00
9.483350e-01 3.515070e-01 0.000000e+00
8.556660e-01 3.171620e-01 0.000000e+00
9.483350e-01 3.515070e-01 0.000000e+00
8.654290e-01 2.894190e-01 0.000000e+00
9.591690e-01 3.207470e-01 0.000000e+00
8.654290e-01 2.894190e-01 0.000000e+00
9.591690e-01 3.207470e-01 0.000000e+00
8.742950e-01 2.613640e-01 0.000000e+00
9.690060e-01 2.896470e-01 0.000000e+00
8.742950e-01 2.613640e-01 0.000000e+00
9.690060e-01 2.896470e-01 0.000000e+00
8.822540e-01 2.330290e-01 0.000000e+00
9.778350e-01 2.582420e-01 0.000000e+00
8.822540e-01 2.330290e-01 0.000000e+00
9.778350e-01 2.582420e-01 0.000000e+00
8.892980e-01 2.044450e-01 0.000000e+00
9.856490e-01 2.265640e-01 0.000000e+00
8.892980e-01 2.044450e-01 0.000000e+00
9.856490e-01 2.265640e-01 0.000000e+00
8.954190e-01 1.756430e-01 0.000000e+00
9.924380e-01 1.946460e-01 0.000000e+00
8.954190e-01 1.756430e-01 0.000000e+00
9.924380e-01 1.946460e-01 0.000000e+00
9.006100e-01 1.466550e-01 0.000000e+00
9.981960e-01 1.625210e-01 0.000000e+00
9.006100e-01 1.466550e-01 0.000000e+00
9.981960e-01 1.625210e-01 0.000000e+00
9.048660e-01 1.175110e-01 0.000000e+00
1.002920e+00 1.302250e-01 0.000000e+00
9.048660e-01 1.175110e-01 0.000000e+00
1.002920e+00 1.302250e-01 0.000000e+00
9.081810e-01 8.824240e-02 0.000000e+00
1.006590e+00 9.778990e-02 0.000000e+00
9.081810e-01 8.824240e-02 0.000000e+00
1.006590e+00 9.778990e-02 0.000000e+00
9.105520e-01 5.888030e-02 0.000000e+00
1.009220e+00 6.525110e-02 0.000000e+00
9.105520e-01 5.888030e-02 0.000000e+00
1.009220e+00 6.525110e-02 0.000000e+00
9.119760e-01 2.945570e-02 0.000000e+00
1.010800e+00 3.264290e-02 0.000000e+00
9.119760e-01 2.945570e-02 0.000000e+00
1.010800e+00 3.264290e-02 0.000000e+00
9.124500e-01 4.467890e-12 0.000000e+00
1.011330e+00 4.952050e-12 0.000000e+00
</DataArray>
</Points>
<Cells>
<DataArray type="Int32" Name="connectivity" format="ascii">
0 1 3 2
4 5 7 6
8 9 11 10
12 13 15 14
16 17 19 18
20 21 23 22
24 25 27 26
28 29 31 30
32 33 35 34
36 37 39 38
40 41 43 42
44 45 47 46
48 49 51 50
52 53 55 54
56 57 59 58
60 61 63 62
64 65 67 66
68 69 71 70
72 73 75 74
76 77 79 78
80 81 83 82
84 85 87 86
88 89 91 90
92 93 95 94
96 97 99 98
100 101 103 102
104 105 107 106
108 109 111 110
112 113 115 114
116 117 119 118
120 121 123 122
124 125 127 126
128 129 131 130
132 133 135 134
136 137 139 138
140 141 143 142
144 145 147 146
148 149 151 150
152 153 155 154
156 157 159 158
160 161 163 162
164 165 167 166
168 169 171 170
172 173 175 174
176 177 179 178
180 181 183 182
184 185 187 186
188 189 191 190
</DataArray>
<DataArray type="Int32" Name="offsets" format="ascii">
4
8
12
16
20
24
28
32
36
40
44
48
52
56
60
64
68
72
76
80
84
88
92
96
100
104
108
112
116
120
124
128
132
136
140
144
148
152
156
160
164
168
172
176
180
184
188
192
</DataArray>
<DataArray type="UInt8" Name="types" format="ascii">
9
9
9
9
9
9
9
9
9
9
9
9
9
9
9
9
9
9
9
9
9
9
9
9
9
9
9
9
9
9
9
9
9
9
9
9
9
9
9
9
9
9
9
9
9
9
9
9
</DataArray>
</Cells>
<PointData>
<DataArray type="Float32" Name="V1" format="ascii">
8.662870e-01
-1.225640e+00
8.656670e-01
-1.226260e+00
8.654720e-01
-1.225210e+00
8.632280e-01
-1.227450e+00
8.599670e-01
-1.223550e+00
8.556610e-01
-1.227850e+00
8.435680e-01
-1.215790e+00
8.365680e-01
-1.222790e+00
8.045140e-01
-1.192260e+00
7.966340e-01
-1.200140e+00
7.256740e-01
-1.133960e+00
7.257900e-01
-1.133840e+00
5.883620e-01
-1.007200e+00
6.204210e-01
-9.751420e-01
3.872120e-01
-7.384490e-01
4.550190e-01
-6.706420e-01
2.370600e-01
-4.637860e-01
2.644610e-01
-4.363860e-01
1.125690e-01
-2.970280e-01
1.312960e-01
-2.783010e-01
1.271740e-02
-1.673740e-01
3.233140e-02
-1.477600e-01
-5.878770e-02
-6.253090e-02
-3.848010e-02
-4.222340e-02
-1.061840e-01
2.092930e-02
-8.609510e-02
4.101850e-02
-1.339900e-01
8.558740e-02
-1.148050e-01
1.047730e-01
-1.462420e-01
1.339740e-01
-1.284330e-01
1.517830e-01
-1.465110e-01
1.685480e-01
-1.303840e-01
1.846750e-01
-1.379120e-01
1.916370e-01
-1.236360e-01
2.059140e-01
-1.231000e-01
2.053900e-01
-1.107300e-01
2.177610e-01
-1.042790e-01
2.117470e-01
-9.378180e-02
2.222440e-01
-8.322230e-02
2.124140e-01
-7.450120e-02
2.211350e-01
-6.131330e-02
2.088610e-01
-5.422830e-02
2.159460e-01
-3.959220e-02
2.023220e-01
-3.397770e-02
2.079370e-01
-1.880670e-02
1.938110e-01
-1.448570e-02
1.981320e-01
5.373140e-04
1.841400e-01
3.742730e-03
1.873450e-01
1.812830e-02
1.739420e-01
2.038940e-02
1.762030e-01
3.380620e-02
1.636980e-01
3.528300e-02
1.651750e-01
4.752630e-02
1.537600e-01
4.836370e-02
1.545970e-01
5.932750e-02
1.443720e-01
5.965490e-02
1.446990e-01
6.930760e-02
1.356940e-01
6.923770e-02
1.356240e-01
7.760270e-02
1.278190e-01
7.723250e-02
1.274490e-01
8.437180e-02
1.207850e-01
8.378330e-02
1.201970e-01
8.978450e-02
1.145950e-01
8.904600e-02
1.138570e-01
9.401240e-02
1.092200e-01
9.318000e-02
1.083880e-01
9.722250e-02
1.046130e-01
9.634140e-02
1.037320e-01
9.957330e-02
1.007140e-01
9.867920e-02
9.981990e-02
1.012110e-01
9.745520e-02
1.003320e-01
9.657600e-02
1.022700e-01
9.476590e-02
1.014270e-01
9.392260e-02
1.028700e-01
9.257500e-02
1.020780e-01
9.178330e-02
1.031160e-01
9.081390e-02
1.023870e-01
9.008480e-02
1.031020e-01
8.941760e-02
1.024430e-01
8.875860e-02
1.029050e-01
8.832640e-02
1.023210e-01
8.774220e-02
1.025950e-01
8.748630e-02
1.020880e-01
8.697960e-02
1.022270e-01
8.684970e-02
1.017990e-01
8.642160e-02
1.018490e-01
8.637560e-02
1.014990e-01
8.602640e-02
1.014960e-01
8.602980e-02
1.012250e-01
8.575910e-02
1.011980e-01
8.578490e-02
1.010050e-01
8.559220e-02
1.009750e-01
8.562030e-02
1.008600e-01
8.550500e-02
1.008410e-01
8.552230e-02
1.008030e-01
8.548390e-02
</DataArray>
<DataArray type="Float32" Name="V2" format="ascii">
8.084620e-01
9.100000e-01
8.090690e-01
9.105230e-01
8.090690e-01
9.105230e-01
8.108920e-01
9.120900e-01
8.108920e-01
9.120900e-01
8.139270e-01
9.147040e-01
8.139270e-01
9.147040e-01
8.181550e-01
9.183660e-01
8.181550e-01
9.183660e-01
8.235200e-01
9.230880e-01
8.235200e-01
9.230880e-01
8.298830e-01
9.288840e-01
8.298830e-01
9.288840e-01
8.369580e-01
9.357750e-01
8.369580e-01
9.357750e-01
8.444530e-01
9.434820e-01
8.444530e-01
9.434820e-01
8.519810e-01
9.508990e-01
8.519810e-01
9.508990e-01
8.592720e-01
9.580760e-01
8.592720e-01
9.580760e-01
8.661480e-01
9.649070e-01
8.661480e-01
9.649070e-01
8.725210e-01
9.712830e-01
8.725210e-01
9.712830e-01
8.783430e-01
9.771320e-01
8.783430e-01
9.771320e-01
8.835930e-01
9.824140e-01
8.835930e-01
9.824140e-01
8.882690e-01
9.871180e-01
8.882690e-01
9.871180e-01
8.923860e-01
9.912540e-01
8.923860e-01
9.912540e-01
8.959710e-01
9.948480e-01
8.959710e-01
9.948480e-01
8.990590e-01
9.979340e-01
8.990590e-01
9.979340e-01
9.016920e-01
1.000560e+00
9.016920e-01
1.000560e+00
9.039110e-01
1.002760e+00
9.039110e-01
1.002760e+00
9.057620e-01
1.004590e+00
9.057620e-01
1.004590e+00
9.072890e-01
1.006100e+00
9.072890e-01
1.006100e+00
9.085330e-01
1.007330e+00
9.085330e-01
1.007330e+00
9.095340e-01
1.008320e+00
9.095340e-01
1.008320e+00
9.103290e-01
1.009100e+00
9.103290e-01
1.009100e+00
9.109500e-01
1.009710e+00
9.109500e-01
1.009710e+00
9.114280e-01
1.010190e+00
9.114280e-01
1.010190e+00
9.117880e-01
1.010550e+00
9.117880e-01
1.010550e+00
9.120540e-01
1.010810e+00
9.120540e-01
1.010810e+00
9.122440e-01
1.011010e+00
9.122440e-01
1.011010e+00
9.123750e-01
1.011150e+00
9.123750e-01
1.011150e+00
9.124610e-01
1.011240e+00
9.124610e-01
1.011240e+00
9.125140e-01
1.011300e+00
9.125140e-01
1.011300e+00
9.125420e-01
1.011340e+00
9.125420e-01
1.011340e+00
9.125530e-01
1.011360e+00
9.125530e-01
1.011360e+00
9.125520e-01
1.011370e+00
9.125520e-01
1.011370e+00
9.125440e-01
1.011370e+00
9.125440e-01
1.011370e+00
9.125320e-01
1.011370e+00
9.125320e-01
1.011370e+00
9.125180e-01
1.011360e+00
9.125180e-01
1.011360e+00
9.125040e-01
1.011350e+00
9.125040e-01
1.011350e+00
9.124910e-01
1.011350e+00
9.124910e-01
1.011350e+00
9.124800e-01
1.011340e+00
9.124800e-01
1.011340e+00
9.124710e-01
1.011340e+00
9.124710e-01
1.011340e+00
9.124630e-01
1.011330e+00
9.124630e-01
1.011330e+00
9.124570e-01
1.011330e+00
9.124570e-01
1.011330e+00
9.124530e-01
1.011330e+00
9.124530e-01
1.011330e+00
9.124510e-01
1.011330e+00
9.124510e-01
1.011330e+00
9.124500e-01
1.011330e+00
</DataArray>
<DataArray type="Float32" Name="V3" format="ascii">
0.000000e+00
0.000000e+00
4.434120e-03
1.072980e-03
4.434120e-03
1.072980e-03
8.778140e-03
2.102350e-03
8.778140e-03
2.102350e-03
1.293190e-02
3.052960e-03
1.293190e-02
3.052960e-03
1.677480e-02
3.904910e-03
1.677480e-02
3.904910e-03
2.015730e-02
4.655710e-03
2.015730e-02
4.655710e-03
2.290760e-02
5.310670e-03
2.290760e-02
5.310670e-03
2.488510e-02
5.855170e-03
2.488510e-02
5.855170e-03
2.615410e-02
6.235600e-03
2.615410e-02
6.235600e-03
2.673980e-02
6.703560e-03
2.673980e-02
6.703560e-03
2.674370e-02
7.271800e-03
2.674370e-02
7.271800e-03
2.634420e-02
7.899630e-03
2.634420e-02
7.899630e-03
2.565820e-02
8.550530e-03
2.565820e-02
8.550530e-03
2.477040e-02
9.190060e-03
2.477040e-02
9.190060e-03
2.374560e-02
9.788600e-03
2.374560e-02
9.788600e-03
2.263370e-02
1.032240e-02
2.263370e-02
1.032240e-02
2.147320e-02
1.077400e-02
2.147320e-02
1.077400e-02
2.029380e-02
1.113160e-02
2.029380e-02
1.113160e-02
1.911790e-02
1.138910e-02
1.911790e-02
1.138910e-02
1.796240e-02
1.154520e-02
1.796240e-02
1.154520e-02
1.683980e-02
1.160240e-02
1.683980e-02
1.160240e-02
1.575900e-02
1.156650e-02
1.575900e-02
1.156650e-02
1.472560e-02
1.144520e-02
1.472560e-02
1.144520e-02
1.374340e-02
1.124770e-02
1.374340e-02
1.124770e-02
1.281370e-02
1.098370e-02
1.281370e-02
1.098370e-02
1.193680e-02
1.066320e-02
1.193680e-02
1.066320e-02
1.111150e-02
1.029580e-02
1.111150e-02
1.029580e-02
1.033560e-02
9.890210e-03
1.033560e-02
9.890210e-03
9.606540e-03
9.454710e-03
9.606540e-03
9.454710e-03
8.920950e-03
8.996440e-03
8.920950e-03
8.996440e-03
8.275360e-03
8.521620e-03
8.275360e-03
8.521620e-03
7.666090e-03
8.035520e-03
7.666090e-03
8.035520e-03
7.089450e-03
7.542510e-03
7.089450e-03
7.542510e-03
6.541800e-03
7.046130e-03
6.541800e-03
7.046130e-03
6.019660e-03
6.549180e-03
6.019660e-03
6.549180e-03
5.519730e-03
6.053800e-03
5.519730e-03
6.053800e-03
5.038970e-03
5.561540e-03
5.038970e-03
5.561540e-03
4.574580e-03
5.073500e-03
4.574580e-03
5.073500e-03
4.124040e-03
4.590330e-03
4.124040e-03
4.590330e-03
3.685090e-03
4.112380e-03
3.685090e-03
4.112380e-03
3.255760e-03
3.639700e-03
3.255760e-03
3.639700e-03
2.834290e-03
3.172130e-03
2.834290e-03
3.172130e-03
2.419180e-03
2.709330e-03
2.419180e-03
2.709330e-03
2.009120e-03
2.250820e-03
2.009120e-03
2.250820e-03
1.602990e-03
1.796020e-03
1.602990e-03
1.796020e-03
1.199820e-03
1.344280e-03
1.199820e-03
1.344280e-03
7.987560e-04
8.948710e-04
7.987560e-04
8.948710e-04
3.990470e-04
4.470380e-04
3.990470e-04
4.470380e-04
0.000000e+00
0.000000e+00
</DataArray>
<DataArray type="Float32" Name="V4" format="ascii">
9.000000e-01
1.000000e+00
9.000000e-01
1.000000e+00
9.000000e-01
1.000000e+00
9.000000e-01
1.000000e+00
9.000000e-01
1.000000e+00
9.000000e-01
1.000000e+00
9.000000e-01
1.000000e+00
9.000000e-01
1.000000e+00
9.000000e-01
1.000000e+00
9.000000e-01
1.000000e+00
9.000000e-01
1.000000e+00
9.000000e-01
1.000000e+00
9.000000e-01
1.000000e+00
9.000000e-01
1.000000e+00
9.000000e-01
1.000000e+00
9.000000e-01
1.000000e+00
9.000000e-01
1.000000e+00
9.000000e-01
1.000000e+00
9.000000e-01
1.000000e+00
9.000000e-01
1.000000e+00
9.000000e-01
1.000000e+00
9.000000e-01
1.000000e+00
9.000000e-01
1.000000e+00
9.000000e-01
1.000000e+00
9.000000e-01
1.000000e+00
9.000000e-01
1.000000e+00
9.000000e-01
1.000000e+00
9.000000e-01
1.000000e+00
9.000000e-01
1.000000e+00
9.000000e-01
1.000000e+00
9.000000e-01
1.000000e+00
9.000000e-01
1.000000e+00
9.000000e-01
1.000000e+00
9.000000e-01
1.000000e+00
9.000000e-01
1.000000e+00
9.000000e-01
1.000000e+00
9.000000e-01
1.000000e+00
9.000000e-01
1.000000e+00
9.000000e-01
1.000000e+00
9.000000e-01
1.000000e+00
9.000000e-01
1.000000e+00
9.000000e-01
1.000000e+00
9.000000e-01
1.000000e+00
9.000000e-01
1.000000e+00
9.000000e-01
1.000000e+00
9.000000e-01
1.000000e+00
9.000000e-01
1.000000e+00
9.000000e-01
1.000000e+00
9.000000e-01
1.000000e+00
9.000000e-01
1.000000e+00
9.000000e-01
1.000000e+00
9.000000e-01
1.000000e+00
9.000000e-01
1.000000e+00
9.000000e-01
1.000000e+00
9.000000e-01
1.000000e+00
9.000000e-01
1.000000e+00
9.000000e-01
1.000000e+00
9.000000e-01
1.000000e+00
9.000000e-01
1.000000e+00
9.000000e-01
1.000000e+00
9.000000e-01
1.000000e+00
9.000000e-01
1.000000e+00
9.000000e-01
1.000000e+00
9.000000e-01
1.000000e+00
9.000000e-01
1.000000e+00
9.000000e-01
1.000000e+00
9.000000e-01
1.000000e+00
9.000000e-01
1.000000e+00
9.000000e-01
1.000000e+00
9.000000e-01
1.000000e+00
9.000000e-01
1.000000e+00
9.000000e-01
1.000000e+00
9.000000e-01
1.000000e+00
9.000000e-01
1.000000e+00
9.000000e-01
1.000000e+00
9.000000e-01
1.000000e+00
9.000000e-01
1.000000e+00
9.000000e-01
1.000000e+00
9.000000e-01
1.000000e+00
9.000000e-01
1.000000e+00
9.000000e-01
1.000000e+00
9.000000e-01
1.000000e+00
9.000000e-01
1.000000e+00
9.000000e-01
1.000000e+00
9.000000e-01
1.000000e+00
9.000000e-01
1.000000e+00
9.000000e-01
1.000000e+00
9.000000e-01
1.000000e+00
9.000000e-01
1.000000e+00
9.000000e-01
1.000000e+00
9.000000e-01
1.000000e+00
9.000000e-01
1.000000e+00
9.000000e-01
1.000000e+00
9.000000e-01
1.000000e+00
9.000000e-01
1.000000e+00
9.000000e-01
1.000000e+00
</DataArray>
<DataArray type="Float32" Name="V5" format="ascii">
0.000000e+00
0.000000e+00
3.272490e-02
3.272490e-02
3.272490e-02
3.272490e-02
6.544980e-02
6.544980e-02
6.544980e-02
6.544980e-02
9.817480e-02
9.817480e-02
9.817480e-02
9.817480e-02
1.309000e-01
1.309000e-01
1.309000e-01
1.309000e-01
1.636250e-01
1.636250e-01
1.636250e-01
1.636250e-01
1.963500e-01
1.963500e-01
1.963500e-01
1.963500e-01
2.290740e-01
2.290740e-01
2.290740e-01
2.290740e-01
2.617990e-01
2.617990e-01
2.617990e-01
2.617990e-01
2.945240e-01
2.945240e-01
2.945240e-01
2.945240e-01
3.272490e-01
3.272490e-01
3.272490e-01
3.272490e-01
3.599740e-01
3.599740e-01
3.599740e-01
3.599740e-01
3.926990e-01
3.926990e-01
3.926990e-01
3.926990e-01
4.254240e-01
4.254240e-01
4.254240e-01
4.254240e-01
4.581490e-01
4.581490e-01
4.581490e-01
4.581490e-01
4.908740e-01
4.908740e-01
4.908740e-01
4.908740e-01
5.235990e-01
5.235990e-01
5.235990e-01
5.235990e-01
5.563240e-01
5.563240e-01
5.563240e-01
5.563240e-01
5.890490e-01
5.890490e-01
5.890490e-01
5.890490e-01
6.217740e-01
6.217740e-01
6.217740e-01
6.217740e-01
6.544980e-01
6.544980e-01
6.544980e-01
6.544980e-01
6.872230e-01
6.872230e-01
6.872230e-01
6.872230e-01
7.199480e-01
7.199480e-01
7.199480e-01
7.199480e-01
7.526730e-01
7.526730e-01
7.526730e-01
7.526730e-01
7.853980e-01
7.853980e-01
7.853980e-01
7.853980e-01
8.181230e-01
8.181230e-01
8.181230e-01
8.181230e-01
8.508480e-01
8.508480e-01
8.508480e-01
8.508480e-01
8.835730e-01
8.835730e-01
8.835730e-01
8.835730e-01
9.162980e-01
9.162980e-01
9.162980e-01
9.162980e-01
9.490230e-01
9.490230e-01
9.490230e-01
9.490230e-01
9.817480e-01
9.817480e-01
9.817480e-01
9.817480e-01
1.014470e+00
1.014470e+00
1.014470e+00
1.014470e+00
1.047200e+00
1.047200e+00
1.047200e+00
1.047200e+00
1.079920e+00
1.079920e+00
1.079920e+00
1.079920e+00
1.112650e+00
1.112650e+00
1.112650e+00
1.112650e+00
1.145370e+00
1.145370e+00
1.145370e+00
1.145370e+00
1.178100e+00
1.178100e+00
1.178100e+00
1.178100e+00
1.210820e+00
1.210820e+00
1.210820e+00
1.210820e+00
1.243550e+00
1.243550e+00
1.243550e+00
1.243550e+00
1.276270e+00
1.276270e+00
1.276270e+00
1.276270e+00
1.309000e+00
1.309000e+00
1.309000e+00
1.309000e+00
1.341720e+00
1.341720e+00
1.341720e+00
1.341720e+00
1.374450e+00
1.374450e+00
1.374450e+00
1.374450e+00
1.407170e+00
1.407170e+00
1.407170e+00
1.407170e+00
1.439900e+00
1.439900e+00
1.439900e+00
1.439900e+00
1.472620e+00
1.472620e+00
1.472620e+00
1.472620e+00
1.505350e+00
1.505350e+00
1.505350e+00
1.505350e+00
1.538070e+00
1.538070e+00
1.538070e+00
1.538070e+00
1.570800e+00
1.570800e+00
</DataArray>
</PointData>
</Piece></UnstructuredGrid>
</VTKFile>
