<?xml version="1.0"?>
<VTKFile type="UnstructuredGrid" version="0.1" byte_order="LittleEndian" compressor="vtkZLibDataCompressor">
<UnstructuredGrid>
<Piece NumberOfPoints="192" NumberOfCells="48">
<Points>
<DataArray type="Float32" NumberOfComponents="3" format="ascii">
0.000000e+00 4.686190e-01 0.000000e+00
0.000000e+00 5.400000e-01 0.000000e+00
3.682820e-02 4.686310e-01 0.000000e+00
3.680700e-02 5.400000e-01 0.000000e+00
3.682820e-02 4.686310e-01 0.000000e+00
3.680700e-02 5.400000e-01 0.000000e+00
7.365590e-02 4.686670e-01 0.000000e+00
7.361330e-02 5.400000e-01 0.000000e+00
7.365590e-02 4.686670e-01 0.000000e+00
7.361330e-02 5.400000e-01 0.000000e+00
1.104820e-01 4.687270e-01 0.000000e+00
1.104190e-01 5.400000e-01 0.000000e+00
1.104820e-01 4.687270e-01 0.000000e+00
1.104190e-01 5.400000e-01 0.000000e+00
1.473070e-01 4.688100e-01 0.000000e+00
1.472220e-01 5.400000e-01 0.000000e+00
1.473070e-01 4.688100e-01 0.000000e+00
1.472220e-01 5.400000e-01 0.000000e+00
1.841290e-01 4.689170e-01 0.000000e+00
1.840230e-01 5.400000e-01 0.000000e+00
1.841290e-01 4.689170e-01 0.000000e+00
1.840230e-01 5.400000e-01 0.000000e+00
2.209470e-01 4.690480e-01 0.000000e+00
2.208210e-01 5.400000e-01 0.000000e+00
2.209470e-01 4.690480e-01 0.000000e+00
2.208210e-01 5.400000e-01 0.000000e+00
2.577610e-01 4.692030e-01 0.000000e+00
2.576130e-01 5.400000e-01 0.000000e+00
2.577610e-01 4.692030e-01 0.000000e+00
2.576130e-01 5.400000e-01 0.000000e+00
2.945710e-01 4.693800e-01 0.000000e+00
2.944030e-01 5.400000e-01 0.000000e+00
2.945710e-01 4.693800e-01 0.000000e+00
2.944030e-01 5.400000e-01 0.000000e+00
3.313760e-01 4.695820e-01 0.000000e+00
3.311870e-01 5.400000e-01 0.000000e+00
3.313760e-01 4.695820e-01 0.000000e+00
3.311870e-01 5.400000e-01 0.000000e+00
3.681750e-01 4.698060e-01 0.000000e+00
3.679660e-01 5.400000e-01 0.000000e+00
3.681750e-01 4.698060e-01 0.000000e+00
3.679660e-01 5.400000e-01 0.000000e+00
4.049670e-01 4.700540e-01 0.000000e+00
4.047380e-01 5.400000e-01 0.000000e+00
4.049670e-01 4.700540e-01 0.000000e+00
4.047380e-01 5.400000e-01 0.000000e+00
4.417520e-01 4.703250e-01 0.000000e+00
4.415040e-01 5.400000e-01 0.000000e+00
4.417520e-01 4.703250e-01 0.000000e+00
4.415040e-01 5.400000e-01 0.000000e+00
4.785290e-01 4.706190e-01 0.000000e+00
4.782610e-01 5.400000e-01 0.000000e+00
4.785290e-01 4.706190e-01 0.000000e+00
4.782610e-01 5.400000e-01 0.000000e+00
5.152970e-01 4.709350e-01 0.000000e+00
5.150110e-01 5.400000e-01 0.000000e+00
5.152970e-01 4.709350e-01 0.000000e+00
5.150110e-01 5.400000e-01 0.000000e+00
5.520560e-01 4.712730e-01 0.000000e+00
5.517510e-01 5.400000e-01 0.000000e+00
5.520560e-01 4.712730e-01 0.000000e+00
5.517510e-01 5.400000e-01 0.000000e+00
5.888040e-01 4.716340e-01 0.000000e+00
5.884810e-01 5.400000e-01 0.000000e+00
5.888040e-01 4.716340e-01 0.000000e+00
5.884810e-01 5.400000e-01 0.000000e+00
6.255420e-01 4.720160e-01 0.000000e+00
6.252000e-01 5.400000e-01 0.000000e+00
6.255420e-01 4.720160e-01 0.000000e+00
6.252000e-01 5.400000e-01 0.000000e+00
6.622690e-01 4.724210e-01 0.000000e+00
6.619080e-01 5.400000e-01 0.000000e+00
6.622690e-01 4.724210e-01 0.000000e+00
6.619080e-01 5.400000e-01 0.000000e+00
6.989830e-01 4.728480e-01 0.000000e+00
6.986040e-01 5.400000e-01 0.000000e+00
6.989830e-01 4.728480e-01 0.000000e+00
6.986040e-01 5.400000e-01 0.000000e+00
7.356830e-01 4.732980e-01 0.000000e+00
7.352890e-01 5.400000e-01 0.000000e+00
7.356830e-01 4.732980e-01 0.000000e+00
7.352890e-01 5.400000e-01 0.000000e+00
7.723690e-01 4.737730e-01 0.000000e+00
7.719680e-01 5.400000e-01 0.000000e+00
7.723690e-01 4.737730e-01 0.000000e+00
7.719680e-01 5.400000e-01 0.000000e+00
8.090300e-01 4.742780e-01 0.000000e+00
8.086560e-01 5.400000e-01 0.000000e+00
8.090300e-01 4.742780e-01 0.000000e+00
8.086560e-01 5.400000e-01 0.000000e+00
8.456440e-01 4.748190e-01 0.000000e+00
8.453850e-01 5.400000e-01 0.000000e+00
8.456440e-01 4.748190e-01 0.000000e+00
8.453850e-01 5.400000e-01 0.000000e+00
8.821450e-01 4.753920e-01 0.000000e+00
8.822260e-01 5.400000e-01 0.000000e+00
8.821450e-01 4.753920e-01 0.000000e+00
8.822260e-01 5.400000e-01 0.000000e+00
9.183820e-01 4.759540e-01 0.000000e+00
9.192980e-01 5.400000e-01 0.000000e+00
9.183820e-01 4.759540e-01 0.000000e+00
9.192980e-01 5.400000e-01 0.000000e+00
9.540530e-01 4.763220e-01 0.000000e+00
9.567320e-01 5.400000e-01 0.000000e+00
9.540530e-01 4.763220e-01 0.000000e+00
9.567320e-01 5.400000e-01 0.000000e+00
9.887690e-01 4.759720e-01 0.000000e+00
9.944340e-01 5.400000e-01 0.000000e+00
9.887690e-01 4.759720e-01 0.000000e+00
9.944340e-01 5.400000e-01 0.000000e+00
1.022650e+00 4.739600e-01 0.000000e+00
1.031650e+00 5.381580e-01 0.000000e+00
1.022650e+00 4.739600e-01 0.000000e+00
1.031650e+00 5.381580e-01 0.000000e+00
1.055360e+00 4.694060e-01 0.000000e+00
1.068710e+00 5.322360e-01 0.000000e+00
1.055360e+00 4.694060e-01 0.000000e+00
1.068710e+00 5.322360e-01 0.000000e+00
1.087160e+00 4.620060e-01 0.000000e+00
1.105360e+00 5.229660e-01 0.000000e+00
1.087160e+00 4.620060e-01 0.000000e+00
1.105360e+00 5.229660e-01 0.000000e+00
1.118060e+00 4.517660e-01 0.000000e+00
1.141130e+00 5.104240e-01 0.000000e+00
1.118060e+00 4.517660e-01 0.000000e+00
1.141130e+00 5.104240e-01 0.000000e+00
1.147970e+00 4.387990e-01 0.000000e+00
1.175660e+00 4.947930e-01 0.000000e+00
1.147970e+00 4.387990e-01 0.000000e+00
1.175660e+00 4.947930e-01 0.000000e+00
1.176710e+00 4.232650e-01 0.000000e+00
1.208680e+00 4.763130e-01 0.000000e+00
1.176710e+00 4.232650e-01 0.000000e+00
1.208680e+00 4.763130e-01 0.000000e+00
1.204160e+00 4.053300e-01 0.000000e+00
1.240020e+00 4.552180e-01 0.000000e+00
1.204160e+00 4.053300e-01 0.000000e+00
1.240020e+00 4.552180e-01 0.000000e+00
1.230160e+00 3.851860e-01 0.000000e+00
1.269510e+00 4.317630e-01 0.000000e+00
1.230160e+00 3.851860e-01 0.000000e+00
1.269510e+00 4.317630e-01 0.000000e+00
1.254620e+00 3.630060e-01 0.000000e+00
1.297090e+00 4.061610e-01 0.000000e+00
1.254620e+00 3.630060e-01 0.000000e+00
1.297090e+00 4.061610e-01 0.000000e+00
1.277410e+00 3.389850e-01 0.000000e+00
1.322650e+00 3.786440e-01 0.000000e+00
1.277410e+00 3.389850e-01 0.000000e+00
1.322650e+00 3.786440e-01 0.000000e+00
1.298470e+00 3.132850e-01 0.000000e+00
1.346140e+00 3.493970e-01 0.000000e+00
1.298470e+00 3.132850e-01 0.000000e+00
1.346140e+00 3.493970e-01 0.000000e+00
1.317700e+00 2.860960e-01 0.000000e+00
1.367500e+00 3.186290e-01 0.000000e+00
1.317700e+00 2.860960e-01 0.000000e+00
1.367500e+00 3.186290e-01 0.000000e+00
1.335060e+00 2.575680e-01 0.000000e+00
1.386710e+00 2.865000e-01 0.000000e+00
1.335060e+00 2.575680e-01 0.000000e+00
1.386710e+00 2.865000e-01 0.000000e+00
1.350470e+00 2.278790e-01 0.000000e+00
1.403710e+00 2.531990e-01 0.000000e+00
1.350470e+00 2.278790e-01 0.000000e+00
1.403710e+00 2.531990e-01 0.000000e+00
1.363920e+00 1.971680e-01 0.000000e+00
1.418500e+00 2.188710e-01 0.000000e+00
1.363920e+00 1.971680e-01 0.000000e+00
1.418500e+00 2.188710e-01 0.000000e+00
1.375350e+00 1.656080e-01 0.000000e+00
1.431050e+00 1.836910e-01 0.000000e+00
1.375350e+00 1.656080e-01 0.000000e+00
1.431050e+00 1.836910e-01 0.000000e+00
1.384740e+00 1.333260e-01 0.000000e+00
1.441340e+00 1.477900e-01 0.000000e+00
1.384740e+00 1.333260e-01 0.000000e+00
1.441340e+00 1.477900e-01 0.000000e+00
1.392060e+00 1.004900e-01 0.000000e+00
1.449350e+00 1.113360e-01 0.000000e+00
1.392060e+00 1.004900e-01 0.000000e+00
1.449350e+00 1.113360e-01 0.000000e+00
1.397310e+00 6.722150e-02 0.000000e+00
1.455080e+00 7.445030e-02 0.000000e+00
1.397310e+00 6.722150e-02 0.000000e+00
1.455080e+00 7.445030e-02 0.000000e+00
1.400460e+00 3.368320e-02 0.000000e+00
1.458520e+00 3.729770e-02 0.000000e+00
1.400460e+00 3.368320e-02 0.000000e+00
1.458520e+00 3.729770e-02 0.000000e+00
1.401510e+00 -5.148040e-06 0.000000e+00
1.459670e+00 -5.361670e-06 0.000000e+00
</DataArray>
</Points>
<Cells>
<DataArray type="Int32" Name="connectivity" format="ascii">
0 1 3 2
4 5 7 6
8 9 11 10
12 13 15 14
16 17 19 18
20 21 23 22
24 25 27 26
28 29 31 30
32 33 35 34
36 37 39 38
40 41 43 42
44 45 47 46
48 49 51 50
52 53 55 54
56 57 59 58
60 61 63 62
64 65 67 66
68 69 71 70
72 73 75 74
76 77 79 78
80 81 83 82
84 85 87 86
88 89 91 90
92 93 95 94
96 97 99 98
100 101 103 102
104 105 107 106
108 109 111 110
112 113 115 114
116 117 119 118
120 121 123 122
124 125 127 126
128 129 131 130
132 133 135 134
136 137 139 138
140 141 143 142
144 145 147 146
148 149 151 150
152 153 155 154
156 157 159 158
160 161 163 162
164 165 167 166
168 169 171 170
172 173 175 174
176 177 179 178
180 181 183 182
184 185 187 186
188 189 191 190
</DataArray>
<DataArray type="Int32" Name="offsets" format="ascii">
4
8
12
16
20
24
28
32
36
40
44
48
52
56
60
64
68
72
76
80
84
88
92
96
100
104
108
112
116
120
124
128
132
136
140
144
148
152
156
160
164
168
172
176
180
184
188
192
</DataArray>
<DataArray type="UInt8" Name="types" format="ascii">
9
9
9
9
9
9
9
9
9
9
9
9
9
9
9
9
9
9
9
9
9
9
9
9
9
9
9
9
9
9
9
9
9
9
9
9
9
9
9
9
9
9
9
9
9
9
9
9
</DataArray>
</Cells>
<PointData>
<DataArray type="Float32" Name="V1" format="ascii">
3.412790e+00
1.060010e+00
3.414980e+00
1.062200e+00
3.415490e+00
1.062070e+00
3.420730e+00
1.067310e+00
3.421660e+00
1.066900e+00
3.430710e+00
1.075940e+00
3.431920e+00
1.075130e+00
3.444730e+00
1.087940e+00
3.446250e+00
1.086760e+00
3.462830e+00
1.103330e+00
3.464690e+00
1.101790e+00
3.485040e+00
1.122140e+00
3.487260e+00
1.120230e+00
3.511400e+00
1.144380e+00
3.513990e+00
1.142110e+00
3.541960e+00
1.170090e+00
3.544930e+00
1.167440e+00
3.576780e+00
1.199290e+00
3.580140e+00
1.196270e+00
3.615900e+00
1.232030e+00
3.619670e+00
1.228610e+00
3.659400e+00
1.268340e+00
3.663600e+00
1.264510e+00
3.707350e+00
1.308270e+00
3.712000e+00
1.304020e+00
3.759850e+00
1.351860e+00
3.764960e+00
1.347170e+00
3.816970e+00
1.399180e+00
3.822590e+00
1.394030e+00
3.878850e+00
1.450290e+00
3.885000e+00
1.444640e+00
3.945590e+00
1.505230e+00
3.952310e+00
1.499050e+00
4.017320e+00
1.564070e+00
4.024680e+00
1.557310e+00
4.094220e+00
1.626840e+00
4.102270e+00
1.619440e+00
4.176390e+00
1.693560e+00
4.185150e+00
1.685520e+00
4.263870e+00
1.764240e+00
4.273030e+00
1.755860e+00
4.356240e+00
1.839070e+00
4.364480e+00
1.831560e+00
4.451870e+00
1.918950e+00
4.454930e+00
1.916160e+00
4.546050e+00
2.007280e+00
4.532270e+00
2.019620e+00
4.627230e+00
2.114580e+00
4.568540e+00
2.166930e+00
4.671020e+00
2.269410e+00
4.508730e+00
2.413410e+00
4.635900e+00
2.540580e+00
4.270340e+00
2.864790e+00
4.474330e+00
3.068790e+00
3.917660e+00
3.629240e+00
4.128240e+00
3.839830e+00
3.807680e+00
4.100090e+00
3.926010e+00
4.218420e+00
3.799380e+00
4.332400e+00
3.917770e+00
4.450790e+00
3.866750e+00
4.497430e+00
3.984850e+00
4.615530e+00
3.974120e+00
4.625460e+00
4.089800e+00
4.741150e+00
4.099640e+00
4.732250e+00
4.211330e+00
4.843940e+00
4.231060e+00
4.826020e+00
4.337760e+00
4.932720e+00
4.361640e+00
4.911070e+00
4.462510e+00
5.011950e+00
4.487400e+00
4.989360e+00
4.581930e+00
5.083890e+00
4.606230e+00
5.061880e+00
4.693960e+00
5.149610e+00
4.716780e+00
5.128910e+00
4.797430e+00
5.209560e+00
4.818400e+00
5.190580e+00
4.891710e+00
5.263890e+00
4.910590e+00
5.246790e+00
4.976440e+00
5.312630e+00
4.993190e+00
5.297490e+00
5.051430e+00
5.355730e+00
5.066010e+00
5.342540e+00
5.116580e+00
5.393120e+00
5.129020e+00
5.381890e+00
5.171860e+00
5.424730e+00
5.182170e+00
5.415420e+00
5.217260e+00
5.450510e+00
5.225470e+00
5.443100e+00
5.252770e+00
5.470400e+00
5.258900e+00
5.464870e+00
5.278410e+00
5.484380e+00
5.282490e+00
5.480700e+00
5.294200e+00
5.492410e+00
5.296230e+00
5.490570e+00
5.300130e+00
5.494480e+00
</DataArray>
<DataArray type="Float32" Name="V2" format="ascii">
4.686190e-01
5.400000e-01
4.695850e-01
5.409150e-01
4.695850e-01
5.409150e-01
4.724810e-01
5.436580e-01
4.724810e-01
5.436580e-01
4.772990e-01
5.482230e-01
4.772990e-01
5.482230e-01
4.840270e-01
5.545970e-01
4.840270e-01
5.545970e-01
4.926480e-01
5.627640e-01
4.926480e-01
5.627640e-01
5.031400e-01
5.727040e-01
5.031400e-01
5.727040e-01
5.154770e-01
5.843910e-01
5.154770e-01
5.843910e-01
5.296270e-01
5.977970e-01
5.296270e-01
5.977970e-01
5.455550e-01
6.128860e-01
5.455550e-01
6.128860e-01
5.632200e-01
6.296210e-01
5.632200e-01
6.296210e-01
5.825760e-01
6.479580e-01
5.825760e-01
6.479580e-01
6.035750e-01
6.678510e-01
6.035750e-01
6.678510e-01
6.261620e-01
6.892480e-01
6.261620e-01
6.892480e-01
6.502790e-01
7.120950e-01
6.502790e-01
7.120950e-01
6.758630e-01
7.363310e-01
6.758630e-01
7.363310e-01
7.028490e-01
7.618940e-01
7.028490e-01
7.618940e-01
7.311660e-01
7.887170e-01
7.311660e-01
7.887170e-01
7.607410e-01
8.167300e-01
7.607410e-01
8.167300e-01
7.914950e-01
8.458590e-01
7.914950e-01
8.458590e-01
8.233480e-01
8.760260e-01
8.233480e-01
8.760260e-01
8.562170e-01
9.071570e-01
8.562170e-01
9.071570e-01
8.900120e-01
9.391770e-01
8.900120e-01
9.391770e-01
9.246290e-01
9.720250e-01
9.246290e-01
9.720250e-01
9.599240e-01
1.005670e+00
9.599240e-01
1.005670e+00
9.956530e-01
1.040100e+00
9.956530e-01
1.040100e+00
1.031360e+00
1.075360e+00
1.031360e+00
1.075360e+00
1.066280e+00
1.111280e+00
1.066280e+00
1.111280e+00
1.099850e+00
1.146070e+00
1.099850e+00
1.146070e+00
1.131270e+00
1.178710e+00
1.131270e+00
1.178710e+00
1.160620e+00
1.209620e+00
1.160620e+00
1.209620e+00
1.188030e+00
1.238590e+00
1.188030e+00
1.238590e+00
1.213570e+00
1.265550e+00
1.213570e+00
1.265550e+00
1.237290e+00
1.290490e+00
1.237290e+00
1.290490e+00
1.259250e+00
1.313470e+00
1.259250e+00
1.313470e+00
1.279480e+00
1.334550e+00
1.279480e+00
1.334550e+00
1.298030e+00
1.353790e+00
1.298030e+00
1.353790e+00
1.314950e+00
1.371250e+00
1.314950e+00
1.371250e+00
1.330260e+00
1.387010e+00
1.330260e+00
1.387010e+00
1.344010e+00
1.401110e+00
1.344010e+00
1.401110e+00
1.356230e+00
1.413610e+00
1.356230e+00
1.413610e+00
1.366940e+00
1.424540e+00
1.366940e+00
1.424540e+00
1.376180e+00
1.433950e+00
1.376180e+00
1.433950e+00
1.383950e+00
1.441860e+00
1.383950e+00
1.441860e+00
1.390300e+00
1.448300e+00
1.390300e+00
1.448300e+00
1.395210e+00
1.453280e+00
1.395210e+00
1.453280e+00
1.398710e+00
1.456830e+00
1.398710e+00
1.456830e+00
1.400810e+00
1.458960e+00
1.400810e+00
1.458960e+00
1.401510e+00
1.459670e+00
</DataArray>
<DataArray type="Float32" Name="V3" format="ascii">
0.000000e+00
0.000000e+00
2.147530e-02
1.911900e-02
2.147530e-02
1.911900e-02
4.284590e-02
3.813800e-02
4.284590e-02
3.813800e-02
6.400700e-02
5.695760e-02
6.400700e-02
5.695760e-02
8.485460e-02
7.547830e-02
8.485460e-02
7.547830e-02
1.052850e-01
9.360120e-02
1.052850e-01
9.360120e-02
1.251950e-01
1.112290e-01
1.251950e-01
1.112290e-01
1.444830e-01
1.282630e-01
1.444830e-01
1.282630e-01
1.630490e-01
1.446090e-01
1.630490e-01
1.446090e-01
1.807950e-01
1.601730e-01
1.807950e-01
1.601730e-01
1.976220e-01
1.748610e-01
1.976220e-01
1.748610e-01
2.134340e-01
1.885820e-01
2.134340e-01
1.885820e-01
2.281400e-01
2.012470e-01
2.281400e-01
2.012470e-01
2.416470e-01
2.127690e-01
2.416470e-01
2.127690e-01
2.538670e-01
2.230630e-01
2.538670e-01
2.230630e-01
2.647130e-01
2.320460e-01
2.647130e-01
2.320460e-01
2.741030e-01
2.396390e-01
2.741030e-01
2.396390e-01
2.819550e-01
2.457650e-01
2.819550e-01
2.457650e-01
2.881930e-01
2.503480e-01
2.881930e-01
2.503480e-01
2.927420e-01
2.533200e-01
2.927420e-01
2.533200e-01
2.955320e-01
2.546130e-01
2.955320e-01
2.546130e-01
2.964910e-01
2.541680e-01
2.964910e-01
2.541680e-01
2.955480e-01
2.519330e-01
2.955480e-01
2.519330e-01
2.926230e-01
2.478770e-01
2.926230e-01
2.478770e-01
2.876180e-01
2.419910e-01
2.876180e-01
2.419910e-01
2.804170e-01
2.342980e-01
2.804170e-01
2.342980e-01
2.709330e-01
2.248230e-01
2.709330e-01
2.248230e-01
2.593370e-01
2.134370e-01
2.593370e-01
2.134370e-01
2.465300e-01
2.010810e-01
2.465300e-01
2.010810e-01
2.331710e-01
1.898720e-01
2.331710e-01
1.898720e-01
2.198510e-01
1.792770e-01
2.198510e-01
1.792770e-01
2.067760e-01
1.691450e-01
2.067760e-01
1.691450e-01
1.939690e-01
1.593260e-01
1.939690e-01
1.593260e-01
1.814120e-01
1.497010e-01
1.814120e-01
1.497010e-01
1.690510e-01
1.401690e-01
1.690510e-01
1.401690e-01
1.568470e-01
1.306630e-01
1.568470e-01
1.306630e-01
1.447450e-01
1.211270e-01
1.447450e-01
1.211270e-01
1.327140e-01
1.115300e-01
1.327140e-01
1.115300e-01
1.207170e-01
1.018430e-01
1.207170e-01
1.018430e-01
1.087340e-01
9.205860e-02
1.087340e-01
9.205860e-02
9.674300e-02
8.216480e-02
9.674300e-02
8.216480e-02
8.473740e-02
7.216790e-02
8.473740e-02
7.216790e-02
7.270330e-02
6.206680e-02
7.270330e-02
6.206680e-02
6.064470e-02
5.187640e-02
6.064470e-02
5.187640e-02
4.855430e-02
4.160210e-02
4.855430e-02
4.160210e-02
3.644230e-02
3.126390e-02
3.644230e-02
3.126390e-02
2.430590e-02
2.087080e-02
2.430590e-02
2.087080e-02
1.215860e-02
1.044580e-02
1.215860e-02
1.044580e-02
0.000000e+00
0.000000e+00
</DataArray>
<DataArray type="Float32" Name="V4" format="ascii">
9.000000e-01
1.000000e+00
9.000000e-01
1.000000e+00
9.000000e-01
1.000000e+00
9.000000e-01
1.000000e+00
9.000000e-01
1.000000e+00
9.000000e-01
1.000000e+00
9.000000e-01
1.000000e+00
9.000000e-01
1.000000e+00
9.000000e-01
1.000000e+00
9.000000e-01
1.000000e+00
9.000000e-01
1.000000e+00
9.000000e-01
1.000000e+00
9.000000e-01
1.000000e+00
9.000000e-01
1.000000e+00
9.000000e-01
1.000000e+00
9.000000e-01
1.000000e+00
9.000000e-01
1.000000e+00
9.000000e-01
1.000000e+00
9.000000e-01
1.000000e+00
9.000000e-01
1.000000e+00
9.000000e-01
1.000000e+00
9.000000e-01
1.000000e+00
9.000000e-01
1.000000e+00
9.000000e-01
1.000000e+00
9.000000e-01
1.000000e+00
9.000000e-01
1.000000e+00
9.000000e-01
1.000000e+00
9.000000e-01
1.000000e+00
9.000000e-01
1.000000e+00
9.000000e-01
1.000000e+00
9.000000e-01
1.000000e+00
9.000000e-01
1.000000e+00
9.000000e-01
1.000000e+00
9.000000e-01
1.000000e+00
9.000000e-01
1.000000e+00
9.000000e-01
1.000000e+00
9.000000e-01
1.000000e+00
9.000000e-01
1.000000e+00
9.000000e-01
1.000000e+00
9.000000e-01
1.000000e+00
9.000000e-01
1.000000e+00
9.000000e-01
1.000000e+00
9.000000e-01
1.000000e+00
9.000000e-01
1.000000e+00
9.000000e-01
1.000000e+00
9.000000e-01
1.000000e+00
9.000000e-01
1.000000e+00
9.000000e-01
1.000000e+00
9.000000e-01
1.000000e+00
9.000000e-01
1.000000e+00
9.000000e-01
1.000000e+00
9.000000e-01
1.000000e+00
9.000000e-01
1.000000e+00
9.000000e-01
1.000000e+00
9.000000e-01
1.000000e+00
9.000000e-01
1.000000e+00
9.000000e-01
1.000000e+00
9.000000e-01
1.000000e+00
9.000000e-01
1.000000e+00
9.000000e-01
1.000000e+00
9.000000e-01
1.000000e+00
9.000000e-01
1.000000e+00
9.000000e-01
1.000000e+00
9.000000e-01
1.000000e+00
9.000000e-01
1.000000e+00
9.000000e-01
1.000000e+00
9.000000e-01
1.000000e+00
9.000000e-01
1.000000e+00
9.000000e-01
1.000000e+00
9.000000e-01
1.000000e+00
9.000000e-01
1.000000e+00
9.000000e-01
1.000000e+00
9.000000e-01
1.000000e+00
9.000000e-01
1.000000e+00
9.000000e-01
1.000000e+00
9.000000e-01
1.000000e+00
9.000000e-01
1.000000e+00
9.000000e-01
1.000000e+00
9.000000e-01
1.000000e+00
9.000000e-01
1.000000e+00
9.000000e-01
1.000000e+00
9.000000e-01
1.000000e+00
9.000000e-01
1.000000e+00
9.000000e-01
1.000000e+00
9.000000e-01
1.000000e+00
9.000000e-01
1.000000e+00
9.000000e-01
1.000000e+00
9.000000e-01
1.000000e+00
9.000000e-01
1.000000e+00
9.000000e-01
1.000000e+00
9.000000e-01
1.000000e+00
9.000000e-01
1.000000e+00
9.000000e-01
1.000000e+00
9.000000e-01
1.000000e+00
9.000000e-01
1.000000e+00
9.000000e-01
1.000000e+00
</DataArray>
<DataArray type="Float32" Name="V5" format="ascii">
0.000000e+00
0.000000e+00
3.272490e-02
3.272490e-02
3.272490e-02
3.272490e-02
6.544980e-02
6.544980e-02
6.544980e-02
6.544980e-02
9.817480e-02
9.817480e-02
9.817480e-02
9.817480e-02
1.309000e-01
1.309000e-01
1.309000e-01
1.309000e-01
1.636250e-01
1.636250e-01
1.636250e-01
1.636250e-01
1.963500e-01
1.963500e-01
1.963500e-01
1.963500e-01
2.290740e-01
2.290740e-01
2.290740e-01
2.290740e-01
2.617990e-01
2.617990e-01
2.617990e-01
2.617990e-01
2.945240e-01
2.945240e-01
2.945240e-01
2.945240e-01
3.272490e-01
3.272490e-01
3.272490e-01
3.272490e-01
3.599740e-01
3.599740e-01
3.599740e-01
3.599740e-01
3.926990e-01
3.926990e-01
3.926990e-01
3.926990e-01
4.254240e-01
4.254240e-01
4.254240e-01
4.254240e-01
4.581490e-01
4.581490e-01
4.581490e-01
4.581490e-01
4.908740e-01
4.908740e-01
4.908740e-01
4.908740e-01
5.235990e-01
5.235990e-01
5.235990e-01
5.235990e-01
5.563240e-01
5.563240e-01
5.563240e-01
5.563240e-01
5.890490e-01
5.890490e-01
5.890490e-01
5.890490e-01
6.217740e-01
6.217740e-01
6.217740e-01
6.217740e-01
6.544980e-01
6.544980e-01
6.544980e-01
6.544980e-01
6.872230e-01
6.872230e-01
6.872230e-01
6.872230e-01
7.199480e-01
7.199480e-01
7.199480e-01
7.199480e-01
7.526730e-01
7.526730e-01
7.526730e-01
7.526730e-01
7.853980e-01
7.853980e-01
7.853980e-01
7.853980e-01
8.181230e-01
8.181230e-01
8.181230e-01
8.181230e-01
8.508480e-01
8.508480e-01
8.508480e-01
8.508480e-01
8.835730e-01
8.835730e-01
8.835730e-01
8.835730e-01
9.162980e-01
9.162980e-01
9.162980e-01
9.162980e-01
9.490230e-01
9.490230e-01
9.490230e-01
9.490230e-01
9.817480e-01
9.817480e-01
9.817480e-01
9.817480e-01
1.014470e+00
1.014470e+00
1.014470e+00
1.014470e+00
1.047200e+00
1.047200e+00
1.047200e+00
1.047200e+00
1.079920e+00
1.079920e+00
1.079920e+00
1.079920e+00
1.112650e+00
1.112650e+00
1.112650e+00
1.112650e+00
1.145370e+00
1.145370e+00
1.145370e+00
1.145370e+00
1.178100e+00
1.178100e+00
1.178100e+00
1.178100e+00
1.210820e+00
1.210820e+00
1.210820e+00
1.210820e+00
1.243550e+00
1.243550e+00
1.243550e+00
1.243550e+00
1.276270e+00
1.276270e+00
1.276270e+00
1.276270e+00
1.309000e+00
1.309000e+00
1.309000e+00
1.309000e+00
1.341720e+00
1.341720e+00
1.341720e+00
1.341720e+00
1.374450e+00
1.374450e+00
1.374450e+00
1.374450e+00
1.407170e+00
1.407170e+00
1.407170e+00
1.407170e+00
1.439900e+00
1.439900e+00
1.439900e+00
1.439900e+00
1.472620e+00
1.472620e+00
1.472620e+00
1.472620e+00
1.505350e+00
1.505350e+00
1.505350e+00
1.505350e+00
1.538070e+00
1.538070e+00
1.538070e+00
1.538070e+00
1.570800e+00
1.570800e+00
</DataArray>
</PointData>
</Piece></UnstructuredGrid>
</VTKFile>
