<?xml version="1.0"?>
<VTKFile type="UnstructuredGrid" version="0.1" byte_order="LittleEndian" compressor="vtkZLibDataCompressor">
<UnstructuredGrid>
<Piece NumberOfPoints="192" NumberOfCells="48">
<Points>
<DataArray type="Float32" NumberOfComponents="3" format="ascii">
0.000000e+00 3.530890e-01 0.000000e+00
0.000000e+00 3.850000e-01 0.000000e+00
5.506210e-02 3.530940e-01 0.000000e+00
5.505700e-02 3.850000e-01 0.000000e+00
5.506210e-02 3.530940e-01 0.000000e+00
5.505700e-02 3.850000e-01 0.000000e+00
1.101220e-01 3.531080e-01 0.000000e+00
1.101110e-01 3.850000e-01 0.000000e+00
1.101220e-01 3.531080e-01 0.000000e+00
1.101110e-01 3.850000e-01 0.000000e+00
1.651760e-01 3.531310e-01 0.000000e+00
1.651600e-01 3.850000e-01 0.000000e+00
1.651760e-01 3.531310e-01 0.000000e+00
1.651600e-01 3.850000e-01 0.000000e+00
2.202220e-01 3.531630e-01 0.000000e+00
2.202010e-01 3.850000e-01 0.000000e+00
2.202220e-01 3.531630e-01 0.000000e+00
2.202010e-01 3.850000e-01 0.000000e+00
2.752560e-01 3.532040e-01 0.000000e+00
2.752300e-01 3.850000e-01 0.000000e+00
2.752560e-01 3.532040e-01 0.000000e+00
2.752300e-01 3.850000e-01 0.000000e+00
3.302760e-01 3.532550e-01 0.000000e+00
3.302450e-01 3.850000e-01 0.000000e+00
3.302760e-01 3.532550e-01 0.000000e+00
3.302450e-01 3.850000e-01 0.000000e+00
3.852770e-01 3.533140e-01 0.000000e+00
3.852410e-01 3.850000e-01 0.000000e+00
3.852770e-01 3.533140e-01 0.000000e+00
3.852410e-01 3.850000e-01 0.000000e+00
4.402600e-01 3.533820e-01 0.000000e+00
4.402180e-01 3.850000e-01 0.000000e+00
4.402600e-01 3.533820e-01 0.000000e+00
4.402180e-01 3.850000e-01 0.000000e+00
4.952180e-01 3.534600e-01 0.000000e+00
4.951720e-01 3.850000e-01 0.000000e+00
4.952180e-01 3.534600e-01 0.000000e+00
4.951720e-01 3.850000e-01 0.000000e+00
5.501500e-01 3.535450e-01 0.000000e+00
5.500990e-01 3.850000e-01 0.000000e+00
5.501500e-01 3.535450e-01 0.000000e+00
5.500990e-01 3.850000e-01 0.000000e+00
6.050510e-01 3.536400e-01 0.000000e+00
6.049950e-01 3.850000e-01 0.000000e+00
6.050510e-01 3.536400e-01 0.000000e+00
6.049950e-01 3.850000e-01 0.000000e+00
6.599180e-01 3.537420e-01 0.000000e+00
6.598580e-01 3.850000e-01 0.000000e+00
6.599180e-01 3.537420e-01 0.000000e+00
6.598580e-01 3.850000e-01 0.000000e+00
7.147480e-01 3.538540e-01 0.000000e+00
7.146820e-01 3.850000e-01 0.000000e+00
7.147480e-01 3.538540e-01 0.000000e+00
7.146820e-01 3.850000e-01 0.000000e+00
7.695350e-01 3.539730e-01 0.000000e+00
7.694650e-01 3.850000e-01 0.000000e+00
7.695350e-01 3.539730e-01 0.000000e+00
7.694650e-01 3.850000e-01 0.000000e+00
8.242770e-01 3.541000e-01 0.000000e+00
8.242020e-01 3.850000e-01 0.000000e+00
8.242770e-01 3.541000e-01 0.000000e+00
8.242020e-01 3.850000e-01 0.000000e+00
8.789680e-01 3.542350e-01 0.000000e+00
8.788890e-01 3.850000e-01 0.000000e+00
8.789680e-01 3.542350e-01 0.000000e+00
8.788890e-01 3.850000e-01 0.000000e+00
9.336050e-01 3.543770e-01 0.000000e+00
9.335210e-01 3.850000e-01 0.000000e+00
9.336050e-01 3.543770e-01 0.000000e+00
9.335210e-01 3.850000e-01 0.000000e+00
9.881810e-01 3.545270e-01 0.000000e+00
9.880930e-01 3.850000e-01 0.000000e+00
9.881810e-01 3.545270e-01 0.000000e+00
9.880930e-01 3.850000e-01 0.000000e+00
1.042690e+00 3.546840e-01 0.000000e+00
1.042600e+00 3.850000e-01 0.000000e+00
1.042690e+00 3.546840e-01 0.000000e+00
1.042600e+00 3.850000e-01 0.000000e+00
1.097130e+00 3.548480e-01 0.000000e+00
1.097040e+00 3.850000e-01 0.000000e+00
1.097130e+00 3.548480e-01 0.000000e+00
1.097040e+00 3.850000e-01 0.000000e+00
1.151500e+00 3.550180e-01 0.000000e+00
1.151400e+00 3.850000e-01 0.000000e+00
1.151500e+00 3.550180e-01 0.000000e+00
1.151400e+00 3.850000e-01 0.000000e+00
1.205780e+00 3.551950e-01 0.000000e+00
1.205680e+00 3.850000e-01 0.000000e+00
1.205780e+00 3.551950e-01 0.000000e+00
1.205680e+00 3.850000e-01 0.000000e+00
1.259980e+00 3.553790e-01 0.000000e+00
1.259870e+00 3.850000e-01 0.000000e+00
1.259980e+00 3.553790e-01 0.000000e+00
1.259870e+00 3.850000e-01 0.000000e+00
1.314080e+00 3.555680e-01 0.000000e+00
1.313970e+00 3.850000e-01 0.000000e+00
1.314080e+00 3.555680e-01 0.000000e+00
1.313970e+00 3.850000e-01 0.000000e+00
1.368080e+00 3.557630e-01 0.000000e+00
1.367960e+00 3.850000e-01 0.000000e+00
1.368080e+00 3.557630e-01 0.000000e+00
1.367960e+00 3.850000e-01 0.000000e+00
1.421970e+00 3.559630e-01 0.000000e+00
1.421850e+00 3.850000e-01 0.000000e+00
1.421970e+00 3.559630e-01 0.000000e+00
1.421850e+00 3.850000e-01 0.000000e+00
1.475740e+00 3.561690e-01 0.000000e+00
1.475620e+00 3.850000e-01 0.000000e+00
1.475740e+00 3.561690e-01 0.000000e+00
1.475620e+00 3.850000e-01 0.000000e+00
1.529390e+00 3.563800e-01 0.000000e+00
1.529260e+00 3.850000e-01 0.000000e+00
1.529390e+00 3.563800e-01 0.000000e+00
1.529260e+00 3.850000e-01 0.000000e+00
1.582910e+00 3.565950e-01 0.000000e+00
1.582780e+00 3.850000e-01 0.000000e+00
1.582910e+00 3.565950e-01 0.000000e+00
1.582780e+00 3.850000e-01 0.000000e+00
1.636280e+00 3.568150e-01 0.000000e+00
1.636150e+00 3.850000e-01 0.000000e+00
1.636280e+00 3.568150e-01 0.000000e+00
1.636150e+00 3.850000e-01 0.000000e+00
1.689490e+00 3.570390e-01 0.000000e+00
1.689370e+00 3.850000e-01 0.000000e+00
1.689490e+00 3.570390e-01 0.000000e+00
1.689370e+00 3.850000e-01 0.000000e+00
1.742550e+00 3.572670e-01 0.000000e+00
1.742460e+00 3.850000e-01 0.000000e+00
1.742550e+00 3.572670e-01 0.000000e+00
1.742460e+00 3.850000e-01 0.000000e+00
1.795390e+00 3.574990e-01 0.000000e+00
1.795390e+00 3.850000e-01 0.000000e+00
1.795390e+00 3.574990e-01 0.000000e+00
1.795390e+00 3.850000e-01 0.000000e+00
1.848000e+00 3.577370e-01 0.000000e+00
1.848240e+00 3.850000e-01 0.000000e+00
1.848000e+00 3.577370e-01 0.000000e+00
1.848240e+00 3.850000e-01 0.000000e+00
1.900180e+00 3.579790e-01 0.000000e+00
1.901130e+00 3.850000e-01 0.000000e+00
1.900180e+00 3.579790e-01 0.000000e+00
1.901130e+00 3.850000e-01 0.000000e+00
1.951590e+00 3.581540e-01 0.000000e+00
1.954320e+00 3.850000e-01 0.000000e+00
1.951590e+00 3.581540e-01 0.000000e+00
1.954320e+00 3.850000e-01 0.000000e+00
2.001650e+00 3.567970e-01 0.000000e+00
2.006510e+00 3.840590e-01 0.000000e+00
2.001650e+00 3.567970e-01 0.000000e+00
2.006510e+00 3.840590e-01 0.000000e+00
2.049850e+00 3.496500e-01 0.000000e+00
2.056960e+00 3.760890e-01 0.000000e+00
2.049850e+00 3.496500e-01 0.000000e+00
2.056960e+00 3.760890e-01 0.000000e+00
2.095720e+00 3.354920e-01 0.000000e+00
2.105940e+00 3.606090e-01 0.000000e+00
2.095720e+00 3.354920e-01 0.000000e+00
2.105940e+00 3.606090e-01 0.000000e+00
2.138750e+00 3.148710e-01 0.000000e+00
2.152160e+00 3.381720e-01 0.000000e+00
2.138750e+00 3.148710e-01 0.000000e+00
2.152160e+00 3.381720e-01 0.000000e+00
2.178270e+00 2.884250e-01 0.000000e+00
2.194610e+00 3.095020e-01 0.000000e+00
2.178270e+00 2.884250e-01 0.000000e+00
2.194610e+00 3.095020e-01 0.000000e+00
2.213670e+00 2.568200e-01 0.000000e+00
2.232590e+00 2.753550e-01 0.000000e+00
2.213670e+00 2.568200e-01 0.000000e+00
2.232590e+00 2.753550e-01 0.000000e+00
2.244430e+00 2.207930e-01 0.000000e+00
2.265520e+00 2.365470e-01 0.000000e+00
2.244430e+00 2.207930e-01 0.000000e+00
2.265520e+00 2.365470e-01 0.000000e+00
2.270130e+00 1.810570e-01 0.000000e+00
2.292990e+00 1.938490e-01 0.000000e+00
2.270130e+00 1.810570e-01 0.000000e+00
2.292990e+00 1.938490e-01 0.000000e+00
2.290440e+00 1.383790e-01 0.000000e+00
2.314660e+00 1.480770e-01 0.000000e+00
2.290440e+00 1.383790e-01 0.000000e+00
2.314660e+00 1.480770e-01 0.000000e+00
2.305120e+00 9.347290e-02 0.000000e+00
2.330310e+00 9.998610e-02 0.000000e+00
2.305120e+00 9.347290e-02 0.000000e+00
2.330310e+00 9.998610e-02 0.000000e+00
2.313990e+00 4.710740e-02 0.000000e+00
2.339760e+00 5.037840e-02 0.000000e+00
2.313990e+00 4.710740e-02 0.000000e+00
2.339760e+00 5.037840e-02 0.000000e+00
2.316960e+00 -8.510670e-06 0.000000e+00
2.342920e+00 -8.606020e-06 0.000000e+00
</DataArray>
</Points>
<Cells>
<DataArray type="Int32" Name="connectivity" format="ascii">
0 1 3 2
4 5 7 6
8 9 11 10
12 13 15 14
16 17 19 18
20 21 23 22
24 25 27 26
28 29 31 30
32 33 35 34
36 37 39 38
40 41 43 42
44 45 47 46
48 49 51 50
52 53 55 54
56 57 59 58
60 61 63 62
64 65 67 66
68 69 71 70
72 73 75 74
76 77 79 78
80 81 83 82
84 85 87 86
88 89 91 90
92 93 95 94
96 97 99 98
100 101 103 102
104 105 107 106
108 109 111 110
112 113 115 114
116 117 119 118
120 121 123 122
124 125 127 126
128 129 131 130
132 133 135 134
136 137 139 138
140 141 143 142
144 145 147 146
148 149 151 150
152 153 155 154
156 157 159 158
160 161 163 162
164 165 167 166
168 169 171 170
172 173 175 174
176 177 179 178
180 181 183 182
184 185 187 186
188 189 191 190
</DataArray>
<DataArray type="Int32" Name="offsets" format="ascii">
4
8
12
16
20
24
28
32
36
40
44
48
52
56
60
64
68
72
76
80
84
88
92
96
100
104
108
112
116
120
124
128
132
136
140
144
148
152
156
160
164
168
172
176
180
184
188
192
</DataArray>
<DataArray type="UInt8" Name="types" format="ascii">
9
9
9
9
9
9
9
9
9
9
9
9
9
9
9
9
9
9
9
9
9
9
9
9
9
9
9
9
9
9
9
9
9
9
9
9
9
9
9
9
9
9
9
9
9
9
9
9
</DataArray>
</Cells>
<PointData>
<DataArray type="Float32" Name="V1" format="ascii">
2.003030e+01
1.255860e+01
2.003640e+01
1.256470e+01
2.003880e+01
1.256320e+01
2.005330e+01
1.257770e+01
2.005790e+01
1.257470e+01
2.008280e+01
1.259960e+01
2.008930e+01
1.259470e+01
2.012450e+01
1.262980e+01
2.013300e+01
1.262300e+01
2.017830e+01
1.266840e+01
2.018890e+01
1.265980e+01
2.024460e+01
1.271540e+01
2.025720e+01
1.270500e+01
2.032320e+01
1.277100e+01
2.033790e+01
1.275870e+01
2.041420e+01
1.283510e+01
2.043110e+01
1.282100e+01
2.051790e+01
1.290790e+01
2.053690e+01
1.289190e+01
2.063430e+01
1.298940e+01
2.065550e+01
1.297160e+01
2.076360e+01
1.307970e+01
2.078690e+01
1.306000e+01
2.090580e+01
1.317890e+01
2.093140e+01
1.315730e+01
2.106120e+01
1.328720e+01
2.108900e+01
1.326370e+01
2.122990e+01
1.340460e+01
2.126000e+01
1.337910e+01
2.141220e+01
1.353130e+01
2.144470e+01
1.350390e+01
2.160820e+01
1.366740e+01
2.164300e+01
1.363800e+01
2.181820e+01
1.381310e+01
2.185550e+01
1.378170e+01
2.204240e+01
1.396860e+01
2.208210e+01
1.393500e+01
2.228110e+01
1.413400e+01
2.232330e+01
1.409830e+01
2.253450e+01
1.430950e+01
2.257930e+01
1.427170e+01
2.280310e+01
1.449540e+01
2.285050e+01
1.445530e+01
2.308690e+01
1.469180e+01
2.313700e+01
1.464950e+01
2.338650e+01
1.489900e+01
2.343930e+01
1.485430e+01
2.370220e+01
1.511720e+01
2.375780e+01
1.507020e+01
2.403430e+01
1.534670e+01
2.409270e+01
1.529730e+01
2.438320e+01
1.558770e+01
2.444460e+01
1.553590e+01
2.474930e+01
1.584070e+01
2.481370e+01
1.578640e+01
2.513320e+01
1.610580e+01
2.520040e+01
1.604920e+01
2.553490e+01
1.638370e+01
2.560470e+01
1.632490e+01
2.595480e+01
1.667510e+01
2.602600e+01
1.661510e+01
2.639220e+01
1.698120e+01
2.646140e+01
1.692300e+01
2.684440e+01
1.730600e+01
2.690150e+01
1.725810e+01
2.730210e+01
1.765870e+01
2.731740e+01
1.764650e+01
2.773820e+01
1.806730e+01
2.762620e+01
1.816370e+01
2.807270e+01
1.861030e+01
2.760420e+01
1.901460e+01
2.807940e+01
1.948980e+01
2.694720e+01
2.047260e+01
2.728210e+01
2.080750e+01
2.614400e+01
2.174360e+01
2.662070e+01
2.222030e+01
2.616500e+01
2.260850e+01
2.663190e+01
2.307540e+01
2.651990e+01
2.316940e+01
2.696270e+01
2.361220e+01
2.697520e+01
2.360150e+01
2.738630e+01
2.401260e+01
2.743950e+01
2.396780e+01
2.781150e+01
2.433970e+01
2.787370e+01
2.428750e+01
2.819960e+01
2.461350e+01
2.825820e+01
2.456430e+01
2.853240e+01
2.483850e+01
2.858210e+01
2.479670e+01
2.880000e+01
2.501450e+01
2.883850e+01
2.498210e+01
2.899650e+01
2.514010e+01
2.902270e+01
2.511810e+01
2.911850e+01
2.521380e+01
2.913170e+01
2.520270e+01
2.916380e+01
2.523470e+01
</DataArray>
<DataArray type="Float32" Name="V2" format="ascii">
3.530890e-01
3.850000e-01
3.547060e-01
3.865950e-01
3.547060e-01
3.865950e-01
3.595540e-01
3.913770e-01
3.595540e-01
3.913770e-01
3.676200e-01
3.993350e-01
3.676200e-01
3.993350e-01
3.788860e-01
4.104480e-01
3.788860e-01
4.104480e-01
3.933250e-01
4.246920e-01
3.933250e-01
4.246920e-01
4.109010e-01
4.420300e-01
4.109010e-01
4.420300e-01
4.315720e-01
4.624220e-01
4.315720e-01
4.624220e-01
4.552890e-01
4.858180e-01
4.552890e-01
4.858180e-01
4.819940e-01
5.121630e-01
4.819940e-01
5.121630e-01
5.116230e-01
5.413920e-01
5.116230e-01
5.413920e-01
5.441030e-01
5.734330e-01
5.441030e-01
5.734330e-01
5.793550e-01
6.082100e-01
5.793550e-01
6.082100e-01
6.172940e-01
6.456370e-01
6.172940e-01
6.456370e-01
6.578250e-01
6.856220e-01
6.578250e-01
6.856220e-01
7.008500e-01
7.280660e-01
7.008500e-01
7.280660e-01
7.462600e-01
7.728640e-01
7.462600e-01
7.728640e-01
7.939450e-01
8.199050e-01
7.939450e-01
8.199050e-01
8.437830e-01
8.690710e-01
8.437830e-01
8.690710e-01
8.956490e-01
9.202380e-01
8.956490e-01
9.202380e-01
9.494110e-01
9.732740e-01
9.494110e-01
9.732740e-01
1.004940e+00
1.028050e+00
1.004940e+00
1.028050e+00
1.062080e+00
1.084420e+00
1.062080e+00
1.084420e+00
1.120690e+00
1.142230e+00
1.120690e+00
1.142230e+00
1.180620e+00
1.201350e+00
1.180620e+00
1.201350e+00
1.241710e+00
1.261610e+00
1.241710e+00
1.261610e+00
1.303800e+00
1.322850e+00
1.303800e+00
1.322850e+00
1.366720e+00
1.384910e+00
1.366720e+00
1.384910e+00
1.430300e+00
1.447620e+00
1.430300e+00
1.447620e+00
1.494370e+00
1.510810e+00
1.494370e+00
1.510810e+00
1.558750e+00
1.574310e+00
1.558750e+00
1.574310e+00
1.623260e+00
1.637920e+00
1.623260e+00
1.637920e+00
1.687730e+00
1.701510e+00
1.687730e+00
1.701510e+00
1.751920e+00
1.764880e+00
1.751920e+00
1.764880e+00
1.815640e+00
1.827920e+00
1.815640e+00
1.827920e+00
1.878550e+00
1.890560e+00
1.878550e+00
1.890560e+00
1.940090e+00
1.952890e+00
1.940090e+00
1.952890e+00
1.999030e+00
2.013190e+00
1.999030e+00
2.013190e+00
2.053460e+00
2.068690e+00
2.053460e+00
2.068690e+00
2.102870e+00
2.119940e+00
2.102870e+00
2.119940e+00
2.147370e+00
2.166350e+00
2.147370e+00
2.166350e+00
2.186860e+00
2.207560e+00
2.186860e+00
2.207560e+00
2.221240e+00
2.243410e+00
2.221240e+00
2.243410e+00
2.250410e+00
2.273790e+00
2.250410e+00
2.273790e+00
2.274340e+00
2.298680e+00
2.274340e+00
2.298680e+00
2.292970e+00
2.318030e+00
2.292970e+00
2.318030e+00
2.306300e+00
2.331860e+00
2.306300e+00
2.331860e+00
2.314290e+00
2.340150e+00
2.314290e+00
2.340150e+00
2.316960e+00
2.342920e+00
</DataArray>
<DataArray type="Float32" Name="V3" format="ascii">
0.000000e+00
0.000000e+00
4.347980e-02
4.243070e-02
4.347980e-02
4.243070e-02
8.679170e-02
8.469550e-02
8.679170e-02
8.469550e-02
1.297680e-01
1.266280e-01
1.297680e-01
1.266280e-01
1.722410e-01
1.680650e-01
1.722410e-01
1.680650e-01
2.140440e-01
2.088390e-01
2.140440e-01
2.088390e-01
2.550130e-01
2.487900e-01
2.550130e-01
2.487900e-01
2.949840e-01
2.877530e-01
2.949840e-01
2.877530e-01
3.337960e-01
3.255730e-01
3.337960e-01
3.255730e-01
3.712910e-01
3.620910e-01
3.712910e-01
3.620910e-01
4.073100e-01
3.971510e-01
4.073100e-01
3.971510e-01
4.417010e-01
4.306020e-01
4.417010e-01
4.306020e-01
4.743140e-01
4.622960e-01
4.743140e-01
4.622960e-01
5.050000e-01
4.920860e-01
5.050000e-01
4.920860e-01
5.336170e-01
5.198310e-01
5.336170e-01
5.198310e-01
5.600260e-01
5.453930e-01
5.600260e-01
5.453930e-01
5.840910e-01
5.686400e-01
5.840910e-01
5.686400e-01
6.056840e-01
5.894410e-01
6.056840e-01
5.894410e-01
6.246780e-01
6.076740e-01
6.246780e-01
6.076740e-01
6.409540e-01
6.232200e-01
6.409540e-01
6.232200e-01
6.543970e-01
6.359640e-01
6.543970e-01
6.359640e-01
6.648990e-01
6.458010e-01
6.648990e-01
6.458010e-01
6.723590e-01
6.526280e-01
6.723590e-01
6.526280e-01
6.766790e-01
6.563500e-01
6.766790e-01
6.563500e-01
6.777700e-01
6.568780e-01
6.777700e-01
6.568780e-01
6.755490e-01
6.541300e-01
6.755490e-01
6.541300e-01
6.699420e-01
6.480310e-01
6.699420e-01
6.480310e-01
6.608790e-01
6.385130e-01
6.608790e-01
6.385130e-01
6.482990e-01
6.255160e-01
6.482990e-01
6.255160e-01
6.321510e-01
6.089870e-01
6.321510e-01
6.089870e-01
6.123870e-01
5.888810e-01
6.123870e-01
5.888810e-01
5.889730e-01
5.651650e-01
5.889730e-01
5.651650e-01
5.618680e-01
5.378050e-01
5.618680e-01
5.378050e-01
5.310610e-01
5.068050e-01
5.310610e-01
5.068050e-01
4.964990e-01
4.721560e-01
4.964990e-01
4.721560e-01
4.581520e-01
4.339320e-01
4.581520e-01
4.339320e-01
4.159440e-01
3.921870e-01
4.159440e-01
3.921870e-01
3.711560e-01
3.473550e-01
3.711560e-01
3.473550e-01
3.278040e-01
3.050520e-01
3.278040e-01
3.050520e-01
2.873150e-01
2.662450e-01
2.873150e-01
2.662450e-01
2.494020e-01
2.303640e-01
2.494020e-01
2.303640e-01
2.137460e-01
1.969310e-01
2.137460e-01
1.969310e-01
1.799730e-01
1.654850e-01
1.799730e-01
1.654850e-01
1.477670e-01
1.356600e-01
1.477670e-01
1.356600e-01
1.167950e-01
1.070970e-01
1.167950e-01
1.070970e-01
8.679360e-02
7.951620e-02
8.679360e-02
7.951620e-02
5.748110e-02
5.262930e-02
5.748110e-02
5.262930e-02
2.863270e-02
2.620650e-02
2.863270e-02
2.620650e-02
0.000000e+00
0.000000e+00
</DataArray>
<DataArray type="Float32" Name="V4" format="ascii">
9.000000e-01
1.000000e+00
9.000000e-01
1.000000e+00
9.000000e-01
1.000000e+00
9.000000e-01
1.000000e+00
9.000000e-01
1.000000e+00
9.000000e-01
1.000000e+00
9.000000e-01
1.000000e+00
9.000000e-01
1.000000e+00
9.000000e-01
1.000000e+00
9.000000e-01
1.000000e+00
9.000000e-01
1.000000e+00
9.000000e-01
1.000000e+00
9.000000e-01
1.000000e+00
9.000000e-01
1.000000e+00
9.000000e-01
1.000000e+00
9.000000e-01
1.000000e+00
9.000000e-01
1.000000e+00
9.000000e-01
1.000000e+00
9.000000e-01
1.000000e+00
9.000000e-01
1.000000e+00
9.000000e-01
1.000000e+00
9.000000e-01
1.000000e+00
9.000000e-01
1.000000e+00
9.000000e-01
1.000000e+00
9.000000e-01
1.000000e+00
9.000000e-01
1.000000e+00
9.000000e-01
1.000000e+00
9.000000e-01
1.000000e+00
9.000000e-01
1.000000e+00
9.000000e-01
1.000000e+00
9.000000e-01
1.000000e+00
9.000000e-01
1.000000e+00
9.000000e-01
1.000000e+00
9.000000e-01
1.000000e+00
9.000000e-01
1.000000e+00
9.000000e-01
1.000000e+00
9.000000e-01
1.000000e+00
9.000000e-01
1.000000e+00
9.000000e-01
1.000000e+00
9.000000e-01
1.000000e+00
9.000000e-01
1.000000e+00
9.000000e-01
1.000000e+00
9.000000e-01
1.000000e+00
9.000000e-01
1.000000e+00
9.000000e-01
1.000000e+00
9.000000e-01
1.000000e+00
9.000000e-01
1.000000e+00
9.000000e-01
1.000000e+00
9.000000e-01
1.000000e+00
9.000000e-01
1.000000e+00
9.000000e-01
1.000000e+00
9.000000e-01
1.000000e+00
9.000000e-01
1.000000e+00
9.000000e-01
1.000000e+00
9.000000e-01
1.000000e+00
9.000000e-01
1.000000e+00
9.000000e-01
1.000000e+00
9.000000e-01
1.000000e+00
9.000000e-01
1.000000e+00
9.000000e-01
1.000000e+00
9.000000e-01
1.000000e+00
9.000000e-01
1.000000e+00
9.000000e-01
1.000000e+00
9.000000e-01
1.000000e+00
9.000000e-01
1.000000e+00
9.000000e-01
1.000000e+00
9.000000e-01
1.000000e+00
9.000000e-01
1.000000e+00
9.000000e-01
1.000000e+00
9.000000e-01
1.000000e+00
9.000000e-01
1.000000e+00
9.000000e-01
1.000000e+00
9.000000e-01
1.000000e+00
9.000000e-01
1.000000e+00
9.000000e-01
1.000000e+00
9.000000e-01
1.000000e+00
9.000000e-01
1.000000e+00
9.000000e-01
1.000000e+00
9.000000e-01
1.000000e+00
9.000000e-01
1.000000e+00
9.000000e-01
1.000000e+00
9.000000e-01
1.000000e+00
9.000000e-01
1.000000e+00
9.000000e-01
1.000000e+00
9.000000e-01
1.000000e+00
9.000000e-01
1.000000e+00
9.000000e-01
1.000000e+00
9.000000e-01
1.000000e+00
9.000000e-01
1.000000e+00
9.000000e-01
1.000000e+00
9.000000e-01
1.000000e+00
9.000000e-01
1.000000e+00
9.000000e-01
1.000000e+00
9.000000e-01
1.000000e+00
9.000000e-01
1.000000e+00
9.000000e-01
1.000000e+00
</DataArray>
<DataArray type="Float32" Name="V5" format="ascii">
0.000000e+00
0.000000e+00
3.272490e-02
3.272490e-02
3.272490e-02
3.272490e-02
6.544980e-02
6.544980e-02
6.544980e-02
6.544980e-02
9.817480e-02
9.817480e-02
9.817480e-02
9.817480e-02
1.309000e-01
1.309000e-01
1.309000e-01
1.309000e-01
1.636250e-01
1.636250e-01
1.636250e-01
1.636250e-01
1.963500e-01
1.963500e-01
1.963500e-01
1.963500e-01
2.290740e-01
2.290740e-01
2.290740e-01
2.290740e-01
2.617990e-01
2.617990e-01
2.617990e-01
2.617990e-01
2.945240e-01
2.945240e-01
2.945240e-01
2.945240e-01
3.272490e-01
3.272490e-01
3.272490e-01
3.272490e-01
3.599740e-01
3.599740e-01
3.599740e-01
3.599740e-01
3.926990e-01
3.926990e-01
3.926990e-01
3.926990e-01
4.254240e-01
4.254240e-01
4.254240e-01
4.254240e-01
4.581490e-01
4.581490e-01
4.581490e-01
4.581490e-01
4.908740e-01
4.908740e-01
4.908740e-01
4.908740e-01
5.235990e-01
5.235990e-01
5.235990e-01
5.235990e-01
5.563240e-01
5.563240e-01
5.563240e-01
5.563240e-01
5.890490e-01
5.890490e-01
5.890490e-01
5.890490e-01
6.217740e-01
6.217740e-01
6.217740e-01
6.217740e-01
6.544980e-01
6.544980e-01
6.544980e-01
6.544980e-01
6.872230e-01
6.872230e-01
6.872230e-01
6.872230e-01
7.199480e-01
7.199480e-01
7.199480e-01
7.199480e-01
7.526730e-01
7.526730e-01
7.526730e-01
7.526730e-01
7.853980e-01
7.853980e-01
7.853980e-01
7.853980e-01
8.181230e-01
8.181230e-01
8.181230e-01
8.181230e-01
8.508480e-01
8.508480e-01
8.508480e-01
8.508480e-01
8.835730e-01
8.835730e-01
8.835730e-01
8.835730e-01
9.162980e-01
9.162980e-01
9.162980e-01
9.162980e-01
9.490230e-01
9.490230e-01
9.490230e-01
9.490230e-01
9.817480e-01
9.817480e-01
9.817480e-01
9.817480e-01
1.014470e+00
1.014470e+00
1.014470e+00
1.014470e+00
1.047200e+00
1.047200e+00
1.047200e+00
1.047200e+00
1.079920e+00
1.079920e+00
1.079920e+00
1.079920e+00
1.112650e+00
1.112650e+00
1.112650e+00
1.112650e+00
1.145370e+00
1.145370e+00
1.145370e+00
1.145370e+00
1.178100e+00
1.178100e+00
1.178100e+00
1.178100e+00
1.210820e+00
1.210820e+00
1.210820e+00
1.210820e+00
1.243550e+00
1.243550e+00
1.243550e+00
1.243550e+00
1.276270e+00
1.276270e+00
1.276270e+00
1.276270e+00
1.309000e+00
1.309000e+00
1.309000e+00
1.309000e+00
1.341720e+00
1.341720e+00
1.341720e+00
1.341720e+00
1.374450e+00
1.374450e+00
1.374450e+00
1.374450e+00
1.407170e+00
1.407170e+00
1.407170e+00
1.407170e+00
1.439900e+00
1.439900e+00
1.439900e+00
1.439900e+00
1.472620e+00
1.472620e+00
1.472620e+00
1.472620e+00
1.505350e+00
1.505350e+00
1.505350e+00
1.505350e+00
1.538070e+00
1.538070e+00
1.538070e+00
1.538070e+00
1.570800e+00
1.570800e+00
</DataArray>
</PointData>
</Piece></UnstructuredGrid>
</VTKFile>
