<?xml version="1.0"?>
<VTKFile type="UnstructuredGrid" version="0.1" byte_order="LittleEndian" compressor="vtkZLibDataCompressor">
<UnstructuredGrid>
<Piece NumberOfPoints="192" NumberOfCells="48">
<Points>
<DataArray type="Float32" NumberOfComponents="3" format="ascii">
0.000000e+00 4.447030e-01 0.000000e+00
0.000000e+00 5.100000e-01 0.000000e+00
3.850290e-02 4.447150e-01 0.000000e+00
3.848490e-02 5.100000e-01 0.000000e+00
3.850290e-02 4.447150e-01 0.000000e+00
3.848490e-02 5.100000e-01 0.000000e+00
7.700550e-02 4.447480e-01 0.000000e+00
7.696940e-02 5.100000e-01 0.000000e+00
7.700550e-02 4.447480e-01 0.000000e+00
7.696940e-02 5.100000e-01 0.000000e+00
1.155070e-01 4.448050e-01 0.000000e+00
1.154530e-01 5.100000e-01 0.000000e+00
1.155070e-01 4.448050e-01 0.000000e+00
1.154530e-01 5.100000e-01 0.000000e+00
1.540090e-01 4.448830e-01 0.000000e+00
1.539360e-01 5.100000e-01 0.000000e+00
1.540090e-01 4.448830e-01 0.000000e+00
1.539360e-01 5.100000e-01 0.000000e+00
1.925080e-01 4.449840e-01 0.000000e+00
1.924180e-01 5.100000e-01 0.000000e+00
1.925080e-01 4.449840e-01 0.000000e+00
1.924180e-01 5.100000e-01 0.000000e+00
2.310050e-01 4.451080e-01 0.000000e+00
2.308980e-01 5.100000e-01 0.000000e+00
2.310050e-01 4.451080e-01 0.000000e+00
2.308980e-01 5.100000e-01 0.000000e+00
2.694990e-01 4.452530e-01 0.000000e+00
2.693740e-01 5.100000e-01 0.000000e+00
2.694990e-01 4.452530e-01 0.000000e+00
2.693740e-01 5.100000e-01 0.000000e+00
3.079910e-01 4.454210e-01 0.000000e+00
3.078490e-01 5.100000e-01 0.000000e+00
3.079910e-01 4.454210e-01 0.000000e+00
3.078490e-01 5.100000e-01 0.000000e+00
3.464800e-01 4.456100e-01 0.000000e+00
3.463210e-01 5.100000e-01 0.000000e+00
3.464800e-01 4.456100e-01 0.000000e+00
3.463210e-01 5.100000e-01 0.000000e+00
3.849660e-01 4.458220e-01 0.000000e+00
3.847890e-01 5.100000e-01 0.000000e+00
3.849660e-01 4.458220e-01 0.000000e+00
3.847890e-01 5.100000e-01 0.000000e+00
4.234470e-01 4.460550e-01 0.000000e+00
4.232540e-01 5.100000e-01 0.000000e+00
4.234470e-01 4.460550e-01 0.000000e+00
4.232540e-01 5.100000e-01 0.000000e+00
4.619240e-01 4.463090e-01 0.000000e+00
4.617140e-01 5.100000e-01 0.000000e+00
4.619240e-01 4.463090e-01 0.000000e+00
4.617140e-01 5.100000e-01 0.000000e+00
5.003960e-01 4.465850e-01 0.000000e+00
5.001700e-01 5.100000e-01 0.000000e+00
5.003960e-01 4.465850e-01 0.000000e+00
5.001700e-01 5.100000e-01 0.000000e+00
5.388620e-01 4.468820e-01 0.000000e+00
5.386200e-01 5.100000e-01 0.000000e+00
5.388620e-01 4.468820e-01 0.000000e+00
5.386200e-01 5.100000e-01 0.000000e+00
5.773210e-01 4.471990e-01 0.000000e+00
5.770640e-01 5.100000e-01 0.000000e+00
5.773210e-01 4.471990e-01 0.000000e+00
5.770640e-01 5.100000e-01 0.000000e+00
6.157740e-01 4.475370e-01 0.000000e+00
6.155010e-01 5.100000e-01 0.000000e+00
6.157740e-01 4.475370e-01 0.000000e+00
6.155010e-01 5.100000e-01 0.000000e+00
6.542190e-01 4.478950e-01 0.000000e+00
6.539320e-01 5.100000e-01 0.000000e+00
6.542190e-01 4.478950e-01 0.000000e+00
6.539320e-01 5.100000e-01 0.000000e+00
6.926560e-01 4.482730e-01 0.000000e+00
6.923540e-01 5.100000e-01 0.000000e+00
6.926560e-01 4.482730e-01 0.000000e+00
6.923540e-01 5.100000e-01 0.000000e+00
7.310840e-01 4.486710e-01 0.000000e+00
7.307670e-01 5.100000e-01 0.000000e+00
7.310840e-01 4.486710e-01 0.000000e+00
7.307670e-01 5.100000e-01 0.000000e+00
7.695000e-01 4.490880e-01 0.000000e+00
7.691700e-01 5.100000e-01 0.000000e+00
7.695000e-01 4.490880e-01 0.000000e+00
7.691700e-01 5.100000e-01 0.000000e+00
8.079070e-01 4.495240e-01 0.000000e+00
8.075640e-01 5.100000e-01 0.000000e+00
8.079070e-01 4.495240e-01 0.000000e+00
8.075640e-01 5.100000e-01 0.000000e+00
8.463020e-01 4.499810e-01 0.000000e+00
8.459480e-01 5.100000e-01 0.000000e+00
8.463020e-01 4.499810e-01 0.000000e+00
8.459480e-01 5.100000e-01 0.000000e+00
8.846810e-01 4.504590e-01 0.000000e+00
8.843290e-01 5.100000e-01 0.000000e+00
8.846810e-01 4.504590e-01 0.000000e+00
8.843290e-01 5.100000e-01 0.000000e+00
9.230340e-01 4.509620e-01 0.000000e+00
9.227190e-01 5.100000e-01 0.000000e+00
9.230340e-01 4.509620e-01 0.000000e+00
9.227190e-01 5.100000e-01 0.000000e+00
9.613340e-01 4.514940e-01 0.000000e+00
9.611560e-01 5.100000e-01 0.000000e+00
9.613340e-01 4.514940e-01 0.000000e+00
9.611560e-01 5.100000e-01 0.000000e+00
9.995060e-01 4.520490e-01 0.000000e+00
9.997150e-01 5.100000e-01 0.000000e+00
9.995060e-01 4.520490e-01 0.000000e+00
9.997150e-01 5.100000e-01 0.000000e+00
1.037370e+00 4.525710e-01 0.000000e+00
1.038530e+00 5.100000e-01 0.000000e+00
1.037370e+00 4.525710e-01 0.000000e+00
1.038530e+00 5.100000e-01 0.000000e+00
1.074560e+00 4.528220e-01 0.000000e+00
1.077710e+00 5.100000e-01 0.000000e+00
1.074560e+00 4.528220e-01 0.000000e+00
1.077710e+00 5.100000e-01 0.000000e+00
1.110730e+00 4.521430e-01 0.000000e+00
1.116920e+00 5.100000e-01 0.000000e+00
1.110730e+00 4.521430e-01 0.000000e+00
1.116920e+00 5.100000e-01 0.000000e+00
1.145900e+00 4.492300e-01 0.000000e+00
1.155390e+00 5.066540e-01 0.000000e+00
1.145900e+00 4.492300e-01 0.000000e+00
1.155390e+00 5.066540e-01 0.000000e+00
1.179860e+00 4.433270e-01 0.000000e+00
1.193670e+00 4.992630e-01 0.000000e+00
1.179860e+00 4.433270e-01 0.000000e+00
1.193670e+00 4.992630e-01 0.000000e+00
1.212830e+00 4.342260e-01 0.000000e+00
1.231300e+00 4.881860e-01 0.000000e+00
1.212830e+00 4.342260e-01 0.000000e+00
1.231300e+00 4.881860e-01 0.000000e+00
1.244730e+00 4.220230e-01 0.000000e+00
1.267760e+00 4.735910e-01 0.000000e+00
1.244730e+00 4.220230e-01 0.000000e+00
1.267760e+00 4.735910e-01 0.000000e+00
1.275420e+00 4.068690e-01 0.000000e+00
1.302700e+00 4.557110e-01 0.000000e+00
1.275420e+00 4.068690e-01 0.000000e+00
1.302700e+00 4.557110e-01 0.000000e+00
1.304680e+00 3.889680e-01 0.000000e+00
1.335850e+00 4.348270e-01 0.000000e+00
1.304680e+00 3.889680e-01 0.000000e+00
1.335850e+00 4.348270e-01 0.000000e+00
1.332370e+00 3.685160e-01 0.000000e+00
1.367030e+00 4.112000e-01 0.000000e+00
1.332370e+00 3.685160e-01 0.000000e+00
1.367030e+00 4.112000e-01 0.000000e+00
1.358310e+00 3.457400e-01 0.000000e+00
1.396080e+00 3.851100e-01 0.000000e+00
1.358310e+00 3.457400e-01 0.000000e+00
1.396080e+00 3.851100e-01 0.000000e+00
1.382370e+00 3.208400e-01 0.000000e+00
1.422890e+00 3.567950e-01 0.000000e+00
1.382370e+00 3.208400e-01 0.000000e+00
1.422890e+00 3.567950e-01 0.000000e+00
1.404430e+00 2.940450e-01 0.000000e+00
1.447360e+00 3.265130e-01 0.000000e+00
1.404430e+00 2.940450e-01 0.000000e+00
1.447360e+00 3.265130e-01 0.000000e+00
1.424400e+00 2.655450e-01 0.000000e+00
1.469420e+00 2.944740e-01 0.000000e+00
1.424400e+00 2.655450e-01 0.000000e+00
1.469420e+00 2.944740e-01 0.000000e+00
1.442190e+00 2.355620e-01 0.000000e+00
1.489000e+00 2.609180e-01 0.000000e+00
1.442190e+00 2.355620e-01 0.000000e+00
1.489000e+00 2.609180e-01 0.000000e+00
1.457740e+00 2.042740e-01 0.000000e+00
1.506070e+00 2.260330e-01 0.000000e+00
1.457740e+00 2.042740e-01 0.000000e+00
1.506070e+00 2.260330e-01 0.000000e+00
1.470980e+00 1.718950e-01 0.000000e+00
1.520570e+00 1.900430e-01 0.000000e+00
1.470980e+00 1.718950e-01 0.000000e+00
1.520570e+00 1.900430e-01 0.000000e+00
1.481880e+00 1.385950e-01 0.000000e+00
1.532480e+00 1.531210e-01 0.000000e+00
1.481880e+00 1.385950e-01 0.000000e+00
1.532480e+00 1.531210e-01 0.000000e+00
1.490380e+00 1.045810e-01 0.000000e+00
1.541760e+00 1.154790e-01 0.000000e+00
1.490380e+00 1.045810e-01 0.000000e+00
1.541760e+00 1.154790e-01 0.000000e+00
1.496480e+00 7.001460e-02 0.000000e+00
1.548410e+00 7.728120e-02 0.000000e+00
1.496480e+00 7.001460e-02 0.000000e+00
1.548410e+00 7.728120e-02 0.000000e+00
1.500150e+00 3.509960e-02 0.000000e+00
1.552400e+00 3.873380e-02 0.000000e+00
1.500150e+00 3.509960e-02 0.000000e+00
1.552400e+00 3.873380e-02 0.000000e+00
1.501370e+00 -5.514840e-06 0.000000e+00
1.553730e+00 -5.707160e-06 0.000000e+00
</DataArray>
</Points>
<Cells>
<DataArray type="Int32" Name="connectivity" format="ascii">
0 1 3 2
4 5 7 6
8 9 11 10
12 13 15 14
16 17 19 18
20 21 23 22
24 25 27 26
28 29 31 30
32 33 35 34
36 37 39 38
40 41 43 42
44 45 47 46
48 49 51 50
52 53 55 54
56 57 59 58
60 61 63 62
64 65 67 66
68 69 71 70
72 73 75 74
76 77 79 78
80 81 83 82
84 85 87 86
88 89 91 90
92 93 95 94
96 97 99 98
100 101 103 102
104 105 107 106
108 109 111 110
112 113 115 114
116 117 119 118
120 121 123 122
124 125 127 126
128 129 131 130
132 133 135 134
136 137 139 138
140 141 143 142
144 145 147 146
148 149 151 150
152 153 155 154
156 157 159 158
160 161 163 162
164 165 167 166
168 169 171 170
172 173 175 174
176 177 179 178
180 181 183 182
184 185 187 186
188 189 191 190
</DataArray>
<DataArray type="Int32" Name="offsets" format="ascii">
4
8
12
16
20
24
28
32
36
40
44
48
52
56
60
64
68
72
76
80
84
88
92
96
100
104
108
112
116
120
124
128
132
136
140
144
148
152
156
160
164
168
172
176
180
184
188
192
</DataArray>
<DataArray type="UInt8" Name="types" format="ascii">
9
9
9
9
9
9
9
9
9
9
9
9
9
9
9
9
9
9
9
9
9
9
9
9
9
9
9
9
9
9
9
9
9
9
9
9
9
9
9
9
9
9
9
9
9
9
9
9
</DataArray>
</Cells>
<PointData>
<DataArray type="Float32" Name="V1" format="ascii">
4.340560e+00
1.781480e+00
4.343020e+00
1.783940e+00
4.343660e+00
1.783690e+00
4.349560e+00
1.789600e+00
4.350770e+00
1.788950e+00
4.360930e+00
1.799120e+00
4.362540e+00
1.797960e+00
4.376930e+00
1.812340e+00
4.378990e+00
1.810690e+00
4.397600e+00
1.829300e+00
4.400130e+00
1.827170e+00
4.422970e+00
1.850010e+00
4.425990e+00
1.847400e+00
4.453100e+00
1.874510e+00
4.456620e+00
1.871410e+00
4.488040e+00
1.902830e+00
4.492080e+00
1.899230e+00
4.527840e+00
1.935000e+00
4.532420e+00
1.930900e+00
4.572590e+00
1.971070e+00
4.577720e+00
1.966460e+00
4.622360e+00
2.011100e+00
4.628070e+00
2.005950e+00
4.677240e+00
2.055120e+00
4.683540e+00
2.049420e+00
4.737330e+00
2.103210e+00
4.744250e+00
2.096940e+00
4.802740e+00
2.155430e+00
4.810310e+00
2.148570e+00
4.873590e+00
2.211860e+00
4.881830e+00
2.204380e+00
4.950020e+00
2.272570e+00
4.958960e+00
2.264440e+00
5.032170e+00
2.337640e+00
5.041850e+00
2.328840e+00
5.120200e+00
2.407190e+00
5.130670e+00
2.397670e+00
5.214280e+00
2.481280e+00
5.225600e+00
2.471010e+00
5.314610e+00
2.560020e+00
5.326800e+00
2.548960e+00
5.421350e+00
2.643500e+00
5.434350e+00
2.631720e+00
5.534520e+00
2.731880e+00
5.547870e+00
2.719790e+00
5.653660e+00
2.825580e+00
5.665560e+00
2.814830e+00
5.776850e+00
2.926120e+00
5.781670e+00
2.921710e+00
5.898280e+00
3.038320e+00
5.880590e+00
3.053900e+00
6.003090e+00
3.176410e+00
5.925230e+00
3.245060e+00
6.058510e+00
3.378340e+00
5.841530e+00
3.569120e+00
6.006670e+00
3.734260e+00
5.522350e+00
4.161410e+00
5.781230e+00
4.420290e+00
5.196280e+00
4.985540e+00
5.385810e+00
5.175070e+00
5.115020e+00
5.398330e+00
5.261210e+00
5.544530e+00
5.156860e+00
5.638100e+00
5.302730e+00
5.783960e+00
5.270370e+00
5.813390e+00
5.414370e+00
5.957400e+00
5.416590e+00
5.955550e+00
5.556650e+00
6.095610e+00
5.574880e+00
6.079310e+00
5.709280e+00
6.213710e+00
5.734150e+00
6.191350e+00
5.861700e+00
6.318900e+00
5.888620e+00
6.294740e+00
6.008260e+00
6.414380e+00
6.034860e+00
6.390490e+00
6.145870e+00
6.501500e+00
6.171010e+00
6.478960e+00
6.272720e+00
6.580670e+00
6.295780e+00
6.559980e+00
6.387760e+00
6.651950e+00
6.408490e+00
6.633390e+00
6.490300e+00
6.715210e+00
6.508530e+00
6.698880e+00
6.579930e+00
6.770280e+00
6.595600e+00
6.756270e+00
6.656320e+00
6.816990e+00
6.669390e+00
6.805300e+00
6.719280e+00
6.855190e+00
6.729750e+00
6.845850e+00
6.768670e+00
6.884770e+00
6.776510e+00
6.877760e+00
6.804380e+00
6.905630e+00
6.809620e+00
6.900960e+00
6.826360e+00
6.917710e+00
6.828970e+00
6.915370e+00
6.834560e+00
6.920960e+00
</DataArray>
<DataArray type="Float32" Name="V2" format="ascii">
4.447030e-01
5.100000e-01
4.457360e-01
5.109860e-01
4.457360e-01
5.109860e-01
4.488330e-01
5.139420e-01
4.488330e-01
5.139420e-01
4.539850e-01
5.188610e-01
4.539850e-01
5.188610e-01
4.611800e-01
5.257300e-01
4.611800e-01
5.257300e-01
4.704000e-01
5.345320e-01
4.704000e-01
5.345320e-01
4.816220e-01
5.452460e-01
4.816220e-01
5.452460e-01
4.948190e-01
5.578460e-01
4.948190e-01
5.578460e-01
5.099580e-01
5.722990e-01
5.099580e-01
5.722990e-01
5.270010e-01
5.885710e-01
5.270010e-01
5.885710e-01
5.459050e-01
6.066210e-01
5.459050e-01
6.066210e-01
5.666250e-01
6.264030e-01
5.666250e-01
6.264030e-01
5.891070e-01
6.478690e-01
5.891070e-01
6.478690e-01
6.132950e-01
6.709640e-01
6.132950e-01
6.709640e-01
6.391290e-01
6.956310e-01
6.391290e-01
6.956310e-01
6.665420e-01
7.218060e-01
6.665420e-01
7.218060e-01
6.954660e-01
7.494240e-01
6.954660e-01
7.494240e-01
7.258260e-01
7.784130e-01
7.258260e-01
7.784130e-01
7.575450e-01
8.087010e-01
7.575450e-01
8.087010e-01
7.905410e-01
8.402080e-01
7.905410e-01
8.402080e-01
8.247270e-01
8.728510e-01
8.247270e-01
8.728510e-01
8.600180e-01
9.065480e-01
8.600180e-01
9.065480e-01
8.963190e-01
9.412110e-01
8.963190e-01
9.412110e-01
9.335350e-01
9.767510e-01
9.335350e-01
9.767510e-01
9.715620e-01
1.013090e+00
9.715620e-01
1.013090e+00
1.010280e+00
1.050150e+00
1.010280e+00
1.050150e+00
1.049520e+00
1.087890e+00
1.049520e+00
1.087890e+00
1.089000e+00
1.126330e+00
1.089000e+00
1.126330e+00
1.128170e+00
1.165470e+00
1.128170e+00
1.165470e+00
1.166210e+00
1.204950e+00
1.166210e+00
1.204950e+00
1.202360e+00
1.242160e+00
1.202360e+00
1.242160e+00
1.236040e+00
1.277320e+00
1.236040e+00
1.277320e+00
1.267460e+00
1.310430e+00
1.267460e+00
1.310430e+00
1.296700e+00
1.341310e+00
1.296700e+00
1.341310e+00
1.323840e+00
1.369910e+00
1.323840e+00
1.369910e+00
1.348920e+00
1.396230e+00
1.348920e+00
1.396230e+00
1.371970e+00
1.420330e+00
1.371970e+00
1.420330e+00
1.393030e+00
1.442250e+00
1.393030e+00
1.442250e+00
1.412140e+00
1.462070e+00
1.412140e+00
1.462070e+00
1.429310e+00
1.479820e+00
1.429310e+00
1.479820e+00
1.444590e+00
1.495570e+00
1.444590e+00
1.495570e+00
1.458010e+00
1.509360e+00
1.458010e+00
1.509360e+00
1.469580e+00
1.521230e+00
1.469580e+00
1.521230e+00
1.479330e+00
1.531220e+00
1.479330e+00
1.531220e+00
1.487290e+00
1.539350e+00
1.487290e+00
1.539350e+00
1.493460e+00
1.545650e+00
1.493460e+00
1.545650e+00
1.497860e+00
1.550140e+00
1.497860e+00
1.550140e+00
1.500490e+00
1.552830e+00
1.500490e+00
1.552830e+00
1.501370e+00
1.553730e+00
</DataArray>
<DataArray type="Float32" Name="V3" format="ascii">
0.000000e+00
0.000000e+00
2.393160e-02
2.177760e-02
2.393160e-02
2.177760e-02
4.775270e-02
4.344900e-02
4.775270e-02
4.344900e-02
7.135280e-02
6.490870e-02
7.135280e-02
6.490870e-02
9.462190e-02
8.605100e-02
9.462190e-02
8.605100e-02
1.174500e-01
1.067710e-01
1.174500e-01
1.067710e-01
1.397300e-01
1.269650e-01
1.397300e-01
1.269650e-01
1.613530e-01
1.465280e-01
1.613530e-01
1.465280e-01
1.822140e-01
1.653620e-01
1.822140e-01
1.653620e-01
2.022070e-01
1.833630e-01
2.022070e-01
1.833630e-01
2.212310e-01
2.004350e-01
2.212310e-01
2.004350e-01
2.391840e-01
2.164780e-01
2.391840e-01
2.164780e-01
2.559670e-01
2.314000e-01
2.559670e-01
2.314000e-01
2.714840e-01
2.451060e-01
2.714840e-01
2.451060e-01
2.856400e-01
2.575060e-01
2.856400e-01
2.575060e-01
2.983440e-01
2.685120e-01
2.983440e-01
2.685120e-01
3.095070e-01
2.780400e-01
3.095070e-01
2.780400e-01
3.190450e-01
2.860050e-01
3.190450e-01
2.860050e-01
3.268750e-01
2.923300e-01
3.268750e-01
2.923300e-01
3.329180e-01
2.969380e-01
3.329180e-01
2.969380e-01
3.370990e-01
2.997550e-01
3.370990e-01
2.997550e-01
3.393460e-01
3.007150e-01
3.393460e-01
3.007150e-01
3.395910e-01
2.997510e-01
3.395910e-01
2.997510e-01
3.377670e-01
2.968080e-01
3.377670e-01
2.968080e-01
3.338050e-01
2.918370e-01
3.338050e-01
2.918370e-01
3.276310e-01
2.848080e-01
3.276310e-01
2.848080e-01
3.191510e-01
2.757200e-01
3.191510e-01
2.757200e-01
3.082570e-01
2.646000e-01
3.082570e-01
2.646000e-01
2.949030e-01
2.514570e-01
2.949030e-01
2.514570e-01
2.794490e-01
2.360280e-01
2.794490e-01
2.360280e-01
2.631080e-01
2.206340e-01
2.631080e-01
2.206340e-01
2.465740e-01
2.063690e-01
2.465740e-01
2.063690e-01
2.303610e-01
1.928660e-01
2.303610e-01
1.928660e-01
2.145750e-01
1.799490e-01
2.145750e-01
1.799490e-01
1.991900e-01
1.674510e-01
1.991900e-01
1.674510e-01
1.841580e-01
1.552490e-01
1.841580e-01
1.552490e-01
1.694080e-01
1.432370e-01
1.694080e-01
1.432370e-01
1.548860e-01
1.313450e-01
1.548860e-01
1.313450e-01
1.405300e-01
1.195090e-01
1.405300e-01
1.195090e-01
1.263040e-01
1.076960e-01
1.263040e-01
1.076960e-01
1.121610e-01
9.586920e-02
1.121610e-01
9.586920e-02
9.808210e-02
8.401820e-02
9.808210e-02
8.401820e-02
8.403730e-02
7.212480e-02
8.403730e-02
7.212480e-02
7.001940e-02
6.019180e-02
7.001940e-02
6.019180e-02
5.600920e-02
4.821240e-02
5.600920e-02
4.821240e-02
4.200840e-02
3.619830e-02
4.200840e-02
3.619830e-02
2.800460e-02
2.414930e-02
2.800460e-02
2.414930e-02
1.400470e-02
1.208210e-02
1.400470e-02
1.208210e-02
0.000000e+00
0.000000e+00
</DataArray>
<DataArray type="Float32" Name="V4" format="ascii">
9.000000e-01
1.000000e+00
9.000000e-01
1.000000e+00
9.000000e-01
1.000000e+00
9.000000e-01
1.000000e+00
9.000000e-01
1.000000e+00
9.000000e-01
1.000000e+00
9.000000e-01
1.000000e+00
9.000000e-01
1.000000e+00
9.000000e-01
1.000000e+00
9.000000e-01
1.000000e+00
9.000000e-01
1.000000e+00
9.000000e-01
1.000000e+00
9.000000e-01
1.000000e+00
9.000000e-01
1.000000e+00
9.000000e-01
1.000000e+00
9.000000e-01
1.000000e+00
9.000000e-01
1.000000e+00
9.000000e-01
1.000000e+00
9.000000e-01
1.000000e+00
9.000000e-01
1.000000e+00
9.000000e-01
1.000000e+00
9.000000e-01
1.000000e+00
9.000000e-01
1.000000e+00
9.000000e-01
1.000000e+00
9.000000e-01
1.000000e+00
9.000000e-01
1.000000e+00
9.000000e-01
1.000000e+00
9.000000e-01
1.000000e+00
9.000000e-01
1.000000e+00
9.000000e-01
1.000000e+00
9.000000e-01
1.000000e+00
9.000000e-01
1.000000e+00
9.000000e-01
1.000000e+00
9.000000e-01
1.000000e+00
9.000000e-01
1.000000e+00
9.000000e-01
1.000000e+00
9.000000e-01
1.000000e+00
9.000000e-01
1.000000e+00
9.000000e-01
1.000000e+00
9.000000e-01
1.000000e+00
9.000000e-01
1.000000e+00
9.000000e-01
1.000000e+00
9.000000e-01
1.000000e+00
9.000000e-01
1.000000e+00
9.000000e-01
1.000000e+00
9.000000e-01
1.000000e+00
9.000000e-01
1.000000e+00
9.000000e-01
1.000000e+00
9.000000e-01
1.000000e+00
9.000000e-01
1.000000e+00
9.000000e-01
1.000000e+00
9.000000e-01
1.000000e+00
9.000000e-01
1.000000e+00
9.000000e-01
1.000000e+00
9.000000e-01
1.000000e+00
9.000000e-01
1.000000e+00
9.000000e-01
1.000000e+00
9.000000e-01
1.000000e+00
9.000000e-01
1.000000e+00
9.000000e-01
1.000000e+00
9.000000e-01
1.000000e+00
9.000000e-01
1.000000e+00
9.000000e-01
1.000000e+00
9.000000e-01
1.000000e+00
9.000000e-01
1.000000e+00
9.000000e-01
1.000000e+00
9.000000e-01
1.000000e+00
9.000000e-01
1.000000e+00
9.000000e-01
1.000000e+00
9.000000e-01
1.000000e+00
9.000000e-01
1.000000e+00
9.000000e-01
1.000000e+00
9.000000e-01
1.000000e+00
9.000000e-01
1.000000e+00
9.000000e-01
1.000000e+00
9.000000e-01
1.000000e+00
9.000000e-01
1.000000e+00
9.000000e-01
1.000000e+00
9.000000e-01
1.000000e+00
9.000000e-01
1.000000e+00
9.000000e-01
1.000000e+00
9.000000e-01
1.000000e+00
9.000000e-01
1.000000e+00
9.000000e-01
1.000000e+00
9.000000e-01
1.000000e+00
9.000000e-01
1.000000e+00
9.000000e-01
1.000000e+00
9.000000e-01
1.000000e+00
9.000000e-01
1.000000e+00
9.000000e-01
1.000000e+00
9.000000e-01
1.000000e+00
9.000000e-01
1.000000e+00
9.000000e-01
1.000000e+00
9.000000e-01
1.000000e+00
9.000000e-01
1.000000e+00
9.000000e-01
1.000000e+00
</DataArray>
<DataArray type="Float32" Name="V5" format="ascii">
0.000000e+00
0.000000e+00
3.272490e-02
3.272490e-02
3.272490e-02
3.272490e-02
6.544980e-02
6.544980e-02
6.544980e-02
6.544980e-02
9.817480e-02
9.817480e-02
9.817480e-02
9.817480e-02
1.309000e-01
1.309000e-01
1.309000e-01
1.309000e-01
1.636250e-01
1.636250e-01
1.636250e-01
1.636250e-01
1.963500e-01
1.963500e-01
1.963500e-01
1.963500e-01
2.290740e-01
2.290740e-01
2.290740e-01
2.290740e-01
2.617990e-01
2.617990e-01
2.617990e-01
2.617990e-01
2.945240e-01
2.945240e-01
2.945240e-01
2.945240e-01
3.272490e-01
3.272490e-01
3.272490e-01
3.272490e-01
3.599740e-01
3.599740e-01
3.599740e-01
3.599740e-01
3.926990e-01
3.926990e-01
3.926990e-01
3.926990e-01
4.254240e-01
4.254240e-01
4.254240e-01
4.254240e-01
4.581490e-01
4.581490e-01
4.581490e-01
4.581490e-01
4.908740e-01
4.908740e-01
4.908740e-01
4.908740e-01
5.235990e-01
5.235990e-01
5.235990e-01
5.235990e-01
5.563240e-01
5.563240e-01
5.563240e-01
5.563240e-01
5.890490e-01
5.890490e-01
5.890490e-01
5.890490e-01
6.217740e-01
6.217740e-01
6.217740e-01
6.217740e-01
6.544980e-01
6.544980e-01
6.544980e-01
6.544980e-01
6.872230e-01
6.872230e-01
6.872230e-01
6.872230e-01
7.199480e-01
7.199480e-01
7.199480e-01
7.199480e-01
7.526730e-01
7.526730e-01
7.526730e-01
7.526730e-01
7.853980e-01
7.853980e-01
7.853980e-01
7.853980e-01
8.181230e-01
8.181230e-01
8.181230e-01
8.181230e-01
8.508480e-01
8.508480e-01
8.508480e-01
8.508480e-01
8.835730e-01
8.835730e-01
8.835730e-01
8.835730e-01
9.162980e-01
9.162980e-01
9.162980e-01
9.162980e-01
9.490230e-01
9.490230e-01
9.490230e-01
9.490230e-01
9.817480e-01
9.817480e-01
9.817480e-01
9.817480e-01
1.014470e+00
1.014470e+00
1.014470e+00
1.014470e+00
1.047200e+00
1.047200e+00
1.047200e+00
1.047200e+00
1.079920e+00
1.079920e+00
1.079920e+00
1.079920e+00
1.112650e+00
1.112650e+00
1.112650e+00
1.112650e+00
1.145370e+00
1.145370e+00
1.145370e+00
1.145370e+00
1.178100e+00
1.178100e+00
1.178100e+00
1.178100e+00
1.210820e+00
1.210820e+00
1.210820e+00
1.210820e+00
1.243550e+00
1.243550e+00
1.243550e+00
1.243550e+00
1.276270e+00
1.276270e+00
1.276270e+00
1.276270e+00
1.309000e+00
1.309000e+00
1.309000e+00
1.309000e+00
1.341720e+00
1.341720e+00
1.341720e+00
1.341720e+00
1.374450e+00
1.374450e+00
1.374450e+00
1.374450e+00
1.407170e+00
1.407170e+00
1.407170e+00
1.407170e+00
1.439900e+00
1.439900e+00
1.439900e+00
1.439900e+00
1.472620e+00
1.472620e+00
1.472620e+00
1.472620e+00
1.505350e+00
1.505350e+00
1.505350e+00
1.505350e+00
1.538070e+00
1.538070e+00
1.538070e+00
1.538070e+00
1.570800e+00
1.570800e+00
</DataArray>
</PointData>
</Piece></UnstructuredGrid>
</VTKFile>
