<?xml version="1.0"?>
<VTKFile type="UnstructuredGrid" version="0.1" byte_order="LittleEndian" compressor="vtkZLibDataCompressor">
<UnstructuredGrid>
<Piece NumberOfPoints="192" NumberOfCells="48">
<Points>
<DataArray type="Float32" NumberOfComponents="3" format="ascii">
0.000000e+00 7.585140e-01 0.000000e+00
0.000000e+00 8.600000e-01 0.000000e+00
3.090920e-02 7.585290e-01 0.000000e+00
3.085640e-02 8.600000e-01 0.000000e+00
3.090920e-02 7.585290e-01 0.000000e+00
3.085640e-02 8.600000e-01 0.000000e+00
6.181800e-02 7.585740e-01 0.000000e+00
6.171150e-02 8.600000e-01 0.000000e+00
6.181800e-02 7.585740e-01 0.000000e+00
6.171150e-02 8.600000e-01 0.000000e+00
9.272550e-02 7.586530e-01 0.000000e+00
9.256580e-02 8.600000e-01 0.000000e+00
9.272550e-02 7.586530e-01 0.000000e+00
9.256580e-02 8.600000e-01 0.000000e+00
1.236290e-01 7.587720e-01 0.000000e+00
1.234240e-01 8.600000e-01 0.000000e+00
1.236290e-01 7.587720e-01 0.000000e+00
1.234240e-01 8.600000e-01 0.000000e+00
1.545190e-01 7.589410e-01 0.000000e+00
1.542990e-01 8.600000e-01 0.000000e+00
1.545190e-01 7.589410e-01 0.000000e+00
1.542990e-01 8.600000e-01 0.000000e+00
1.853780e-01 7.591710e-01 0.000000e+00
1.852170e-01 8.600000e-01 0.000000e+00
1.853780e-01 7.591710e-01 0.000000e+00
1.852170e-01 8.600000e-01 0.000000e+00
2.161650e-01 7.594730e-01 0.000000e+00
2.162260e-01 8.600000e-01 0.000000e+00
2.161650e-01 7.594730e-01 0.000000e+00
2.162260e-01 8.600000e-01 0.000000e+00
2.468020e-01 7.598370e-01 0.000000e+00
2.473980e-01 8.600000e-01 0.000000e+00
2.468020e-01 7.598370e-01 0.000000e+00
2.473980e-01 8.600000e-01 0.000000e+00
2.771620e-01 7.602000e-01 0.000000e+00
2.788260e-01 8.600000e-01 0.000000e+00
2.771620e-01 7.602000e-01 0.000000e+00
2.788260e-01 8.600000e-01 0.000000e+00
3.070770e-01 7.603740e-01 0.000000e+00
3.105980e-01 8.600000e-01 0.000000e+00
3.070770e-01 7.603740e-01 0.000000e+00
3.105980e-01 8.600000e-01 0.000000e+00
3.364830e-01 7.600650e-01 0.000000e+00
3.427160e-01 8.599470e-01 0.000000e+00
3.364830e-01 7.600650e-01 0.000000e+00
3.427160e-01 8.599470e-01 0.000000e+00
3.653980e-01 7.588710e-01 0.000000e+00
3.750640e-01 8.584660e-01 0.000000e+00
3.653980e-01 7.588710e-01 0.000000e+00
3.750640e-01 8.584660e-01 0.000000e+00
3.937120e-01 7.565050e-01 0.000000e+00
4.076350e-01 8.552900e-01 0.000000e+00
3.937120e-01 7.565050e-01 0.000000e+00
4.076350e-01 8.552900e-01 0.000000e+00
4.215110e-01 7.526960e-01 0.000000e+00
4.402540e-01 8.503420e-01 0.000000e+00
4.215110e-01 7.526960e-01 0.000000e+00
4.402540e-01 8.503420e-01 0.000000e+00
4.488220e-01 7.473240e-01 0.000000e+00
4.727140e-01 8.435050e-01 0.000000e+00
4.488220e-01 7.473240e-01 0.000000e+00
4.727140e-01 8.435050e-01 0.000000e+00
4.756330e-01 7.403380e-01 0.000000e+00
5.048110e-01 8.347270e-01 0.000000e+00
4.756330e-01 7.403380e-01 0.000000e+00
5.048110e-01 8.347270e-01 0.000000e+00
5.019130e-01 7.317250e-01 0.000000e+00
5.363610e-01 8.240200e-01 0.000000e+00
5.019130e-01 7.317250e-01 0.000000e+00
5.363610e-01 8.240200e-01 0.000000e+00
5.276190e-01 7.215090e-01 0.000000e+00
5.672090e-01 8.114410e-01 0.000000e+00
5.276190e-01 7.215090e-01 0.000000e+00
5.672090e-01 8.114410e-01 0.000000e+00
5.527090e-01 7.097370e-01 0.000000e+00
5.972310e-01 7.970820e-01 0.000000e+00
5.527090e-01 7.097370e-01 0.000000e+00
5.972310e-01 7.970820e-01 0.000000e+00
5.771420e-01 6.964730e-01 0.000000e+00
6.263300e-01 7.810570e-01 0.000000e+00
5.771420e-01 6.964730e-01 0.000000e+00
6.263300e-01 7.810570e-01 0.000000e+00
6.008810e-01 6.817950e-01 0.000000e+00
6.544410e-01 7.634870e-01 0.000000e+00
6.008810e-01 6.817950e-01 0.000000e+00
6.544410e-01 7.634870e-01 0.000000e+00
6.238960e-01 6.657850e-01 0.000000e+00
6.815190e-01 7.444970e-01 0.000000e+00
6.238960e-01 6.657850e-01 0.000000e+00
6.815190e-01 7.444970e-01 0.000000e+00
6.461590e-01 6.485290e-01 0.000000e+00
7.075410e-01 7.242080e-01 0.000000e+00
6.461590e-01 6.485290e-01 0.000000e+00
7.075410e-01 7.242080e-01 0.000000e+00
6.676510e-01 6.301160e-01 0.000000e+00
7.324950e-01 7.027340e-01 0.000000e+00
6.676510e-01 6.301160e-01 0.000000e+00
7.324950e-01 7.027340e-01 0.000000e+00
6.883560e-01 6.106270e-01 0.000000e+00
7.563840e-01 6.801780e-01 0.000000e+00
6.883560e-01 6.106270e-01 0.000000e+00
7.563840e-01 6.801780e-01 0.000000e+00
7.082600e-01 5.901450e-01 0.000000e+00
7.792130e-01 6.566370e-01 0.000000e+00
7.082600e-01 5.901450e-01 0.000000e+00
7.792130e-01 6.566370e-01 0.000000e+00
7.273540e-01 5.687450e-01 0.000000e+00
8.009950e-01 6.321920e-01 0.000000e+00
7.273540e-01 5.687450e-01 0.000000e+00
8.009950e-01 6.321920e-01 0.000000e+00
7.456280e-01 5.464990e-01 0.000000e+00
8.217410e-01 6.069210e-01 0.000000e+00
7.456280e-01 5.464990e-01 0.000000e+00
8.217410e-01 6.069210e-01 0.000000e+00
7.630760e-01 5.234730e-01 0.000000e+00
8.414630e-01 5.808880e-01 0.000000e+00
7.630760e-01 5.234730e-01 0.000000e+00
8.414630e-01 5.808880e-01 0.000000e+00
7.796920e-01 4.997270e-01 0.000000e+00
8.601740e-01 5.541540e-01 0.000000e+00
7.796920e-01 4.997270e-01 0.000000e+00
8.601740e-01 5.541540e-01 0.000000e+00
7.954680e-01 4.753190e-01 0.000000e+00
8.778820e-01 5.267720e-01 0.000000e+00
7.954680e-01 4.753190e-01 0.000000e+00
8.778820e-01 5.267720e-01 0.000000e+00
8.103980e-01 4.503010e-01 0.000000e+00
8.945950e-01 4.987890e-01 0.000000e+00
8.103980e-01 4.503010e-01 0.000000e+00
8.945950e-01 4.987890e-01 0.000000e+00
8.244750e-01 4.247220e-01 0.000000e+00
9.103170e-01 4.702510e-01 0.000000e+00
8.244750e-01 4.247220e-01 0.000000e+00
9.103170e-01 4.702510e-01 0.000000e+00
8.376930e-01 3.986260e-01 0.000000e+00
9.250500e-01 4.411960e-01 0.000000e+00
8.376930e-01 3.986260e-01 0.000000e+00
9.250500e-01 4.411960e-01 0.000000e+00
8.500450e-01 3.720570e-01 0.000000e+00
9.387950e-01 4.116650e-01 0.000000e+00
8.500450e-01 3.720570e-01 0.000000e+00
9.387950e-01 4.116650e-01 0.000000e+00
8.615210e-01 3.450550e-01 0.000000e+00
9.515510e-01 3.816920e-01 0.000000e+00
8.615210e-01 3.450550e-01 0.000000e+00
9.515510e-01 3.816920e-01 0.000000e+00
8.721160e-01 3.176570e-01 0.000000e+00
9.633150e-01 3.513130e-01 0.000000e+00
8.721160e-01 3.176570e-01 0.000000e+00
9.633150e-01 3.513130e-01 0.000000e+00
8.818210e-01 2.899000e-01 0.000000e+00
9.740820e-01 3.205630e-01 0.000000e+00
8.818210e-01 2.899000e-01 0.000000e+00
9.740820e-01 3.205630e-01 0.000000e+00
8.906290e-01 2.618200e-01 0.000000e+00
9.838470e-01 2.894750e-01 0.000000e+00
8.906290e-01 2.618200e-01 0.000000e+00
9.838470e-01 2.894750e-01 0.000000e+00
8.985320e-01 2.334500e-01 0.000000e+00
9.926050e-01 2.580830e-01 0.000000e+00
8.985320e-01 2.334500e-01 0.000000e+00
9.926050e-01 2.580830e-01 0.000000e+00
9.055240e-01 2.048250e-01 0.000000e+00
1.000350e+00 2.264190e-01 0.000000e+00
9.055240e-01 2.048250e-01 0.000000e+00
1.000350e+00 2.264190e-01 0.000000e+00
9.115980e-01 1.759760e-01 0.000000e+00
1.007080e+00 1.945180e-01 0.000000e+00
9.115980e-01 1.759760e-01 0.000000e+00
1.007080e+00 1.945180e-01 0.000000e+00
9.167480e-01 1.469370e-01 0.000000e+00
1.012780e+00 1.624120e-01 0.000000e+00
9.167480e-01 1.469370e-01 0.000000e+00
1.012780e+00 1.624120e-01 0.000000e+00
9.209690e-01 1.177390e-01 0.000000e+00
1.017450e+00 1.301350e-01 0.000000e+00
9.209690e-01 1.177390e-01 0.000000e+00
1.017450e+00 1.301350e-01 0.000000e+00
9.242560e-01 8.841520e-02 0.000000e+00
1.021090e+00 9.772120e-02 0.000000e+00
9.242560e-01 8.841520e-02 0.000000e+00
1.021090e+00 9.772120e-02 0.000000e+00
9.266070e-01 5.899610e-02 0.000000e+00
1.023690e+00 6.520470e-02 0.000000e+00
9.266070e-01 5.899610e-02 0.000000e+00
1.023690e+00 6.520470e-02 0.000000e+00
9.280180e-01 2.951380e-02 0.000000e+00
1.025250e+00 3.261950e-02 0.000000e+00
9.280180e-01 2.951380e-02 0.000000e+00
1.025250e+00 3.261950e-02 0.000000e+00
9.284890e-01 4.546430e-12 0.000000e+00
1.025770e+00 5.022790e-12 0.000000e+00
</DataArray>
</Points>
<Cells>
<DataArray type="Int32" Name="connectivity" format="ascii">
0 1 3 2
4 5 7 6
8 9 11 10
12 13 15 14
16 17 19 18
20 21 23 22
24 25 27 26
28 29 31 30
32 33 35 34
36 37 39 38
40 41 43 42
44 45 47 46
48 49 51 50
52 53 55 54
56 57 59 58
60 61 63 62
64 65 67 66
68 69 71 70
72 73 75 74
76 77 79 78
80 81 83 82
84 85 87 86
88 89 91 90
92 93 95 94
96 97 99 98
100 101 103 102
104 105 107 106
108 109 111 110
112 113 115 114
116 117 119 118
120 121 123 122
124 125 127 126
128 129 131 130
132 133 135 134
136 137 139 138
140 141 143 142
144 145 147 146
148 149 151 150
152 153 155 154
156 157 159 158
160 161 163 162
164 165 167 166
168 169 171 170
172 173 175 174
176 177 179 178
180 181 183 182
184 185 187 186
188 189 191 190
</DataArray>
<DataArray type="Int32" Name="offsets" format="ascii">
4
8
12
16
20
24
28
32
36
40
44
48
52
56
60
64
68
72
76
80
84
88
92
96
100
104
108
112
116
120
124
128
132
136
140
144
148
152
156
160
164
168
172
176
180
184
188
192
</DataArray>
<DataArray type="UInt8" Name="types" format="ascii">
9
9
9
9
9
9
9
9
9
9
9
9
9
9
9
9
9
9
9
9
9
9
9
9
9
9
9
9
9
9
9
9
9
9
9
9
9
9
9
9
9
9
9
9
9
9
9
9
</DataArray>
</Cells>
<PointData>
<DataArray type="Float32" Name="V1" format="ascii">
8.269000e-01
-1.237030e+00
8.282600e-01
-1.235670e+00
8.292500e-01
-1.236140e+00
8.322990e-01
-1.233090e+00
8.341280e-01
-1.234290e+00
8.391230e-01
-1.229290e+00
8.415480e-01
-1.231150e+00
8.477230e-01
-1.224970e+00
8.501210e-01
-1.226800e+00
8.563130e-01
-1.220610e+00
8.566800e-01
-1.220500e+00
8.613390e-01
-1.215840e+00
8.547990e-01
-1.209190e+00
8.564740e-01
-1.207520e+00
8.328290e-01
-1.184940e+00
8.318460e-01
-1.185920e+00
7.723510e-01
-1.130350e+00
7.750530e-01
-1.127650e+00
6.500290e-01
-1.012490e+00
6.773150e-01
-9.852030e-01
4.436430e-01
-7.638110e-01
5.273400e-01
-6.801140e-01
2.497180e-01
-3.972750e-01
2.993510e-01
-3.476420e-01
1.082610e-01
-1.763150e-01
1.353600e-01
-1.492160e-01
-9.628140e-03
-1.452830e-02
1.745860e-02
1.255850e-02
-9.143170e-02
1.139850e-01
-6.334700e-02
1.420690e-01
-1.411410e-01
2.143450e-01
-1.132560e-01
2.422300e-01
-1.646630e-01
2.898710e-01
-1.379950e-01
3.165390e-01
-1.676110e-01
3.439330e-01
-1.428810e-01
3.686630e-01
-1.550860e-01
3.799250e-01
-1.327640e-01
4.022470e-01
-1.315860e-01
4.011250e-01
-1.119270e-01
4.207840e-01
-1.009350e-01
4.105800e-01
-8.401750e-02
4.274980e-01
-6.626330e-02
4.110280e-01
-5.202660e-02
4.252650e-01
-3.002630e-02
4.048510e-01
-1.831220e-02
4.165650e-01
5.930250e-03
3.940600e-01
1.534390e-02
4.034730e-01
4.029090e-02
3.802990e-01
4.766090e-02
3.876690e-01
7.218100e-02
3.648750e-01
7.777610e-02
3.704700e-01
1.010780e-01
3.487940e-01
1.051630e-01
3.528800e-01
1.267340e-01
3.328020e-01
1.295590e-01
3.356280e-01
1.491000e-01
3.174290e-01
1.508940e-01
3.192230e-01
1.682730e-01
3.030290e-01
1.692410e-01
3.039960e-01
1.844490e-01
2.898190e-01
1.847680e-01
2.901380e-01
1.978810e-01
2.779090e-01
1.977050e-01
2.777330e-01
2.088550e-01
2.673320e-01
2.083130e-01
2.667900e-01
2.176670e-01
2.580610e-01
2.168680e-01
2.572610e-01
2.246130e-01
2.500320e-01
2.236450e-01
2.490640e-01
2.299730e-01
2.431570e-01
2.289070e-01
2.420910e-01
2.340060e-01
2.373310e-01
2.329000e-01
2.362250e-01
2.369500e-01
2.324440e-01
2.358500e-01
2.313440e-01
2.390170e-01
2.283860e-01
2.379580e-01
2.273260e-01
2.403940e-01
2.250500e-01
2.394010e-01
2.240570e-01
2.412420e-01
2.223380e-01
2.403360e-01
2.214320e-01
2.417000e-01
2.201580e-01
2.408950e-01
2.193530e-01
2.418830e-01
2.184300e-01
2.411900e-01
2.177370e-01
2.418870e-01
2.170860e-01
2.413130e-01
2.165120e-01
2.417890e-01
2.160660e-01
2.413390e-01
2.156160e-01
2.416490e-01
2.153260e-01
2.413260e-01
2.150020e-01
2.415100e-01
2.148300e-01
2.413160e-01
2.146350e-01
2.414010e-01
2.145550e-01
2.413360e-01
2.144900e-01
</DataArray>
<DataArray type="Float32" Name="V2" format="ascii">
7.585140e-01
8.600000e-01
7.591340e-01
8.605490e-01
7.591340e-01
8.605490e-01
7.609930e-01
8.621950e-01
7.609930e-01
8.621950e-01
7.640880e-01
8.649320e-01
7.640880e-01
8.649320e-01
7.684170e-01
8.687530e-01
7.684170e-01
8.687530e-01
7.739740e-01
8.736480e-01
7.739740e-01
8.736480e-01
7.807500e-01
8.796090e-01
7.807500e-01
8.796090e-01
7.887200e-01
8.866340e-01
7.887200e-01
8.866340e-01
7.978240e-01
8.947280e-01
7.978240e-01
8.947280e-01
8.079220e-01
9.039080e-01
8.079220e-01
9.039080e-01
8.187280e-01
9.141980e-01
8.187280e-01
9.141980e-01
8.298750e-01
9.255520e-01
8.298750e-01
9.255520e-01
8.409370e-01
9.366500e-01
8.409370e-01
9.366500e-01
8.515610e-01
9.472860e-01
8.515610e-01
9.472860e-01
8.615020e-01
9.573680e-01
8.615020e-01
9.573680e-01
8.706550e-01
9.667410e-01
8.706550e-01
9.667410e-01
8.789680e-01
9.753010e-01
8.789680e-01
9.753010e-01
8.864260e-01
9.829950e-01
8.864260e-01
9.829950e-01
8.930420e-01
9.898130e-01
8.930420e-01
9.898130e-01
8.988480e-01
9.957790e-01
8.988480e-01
9.957790e-01
9.038910e-01
1.000940e+00
9.038910e-01
1.000940e+00
9.082290e-01
1.005360e+00
9.082290e-01
1.005360e+00
9.119260e-01
1.009100e+00
9.119260e-01
1.009100e+00
9.150480e-01
1.012240e+00
9.150480e-01
1.012240e+00
9.176600e-01
1.014860e+00
9.176600e-01
1.014860e+00
9.198260e-01
1.017020e+00
9.198260e-01
1.017020e+00
9.216080e-01
1.018790e+00
9.216080e-01
1.018790e+00
9.230600e-01
1.020240e+00
9.230600e-01
1.020240e+00
9.242340e-01
1.021400e+00
9.242340e-01
1.021400e+00
9.251750e-01
1.022340e+00
9.251750e-01
1.022340e+00
9.259230e-01
1.023080e+00
9.259230e-01
1.023080e+00
9.265140e-01
1.023670e+00
9.265140e-01
1.023670e+00
9.269760e-01
1.024140e+00
9.269760e-01
1.024140e+00
9.273350e-01
1.024500e+00
9.273350e-01
1.024500e+00
9.276120e-01
1.024790e+00
9.276120e-01
1.024790e+00
9.278250e-01
1.025010e+00
9.278250e-01
1.025010e+00
9.279890e-01
1.025190e+00
9.279890e-01
1.025190e+00
9.281130e-01
1.025320e+00
9.281130e-01
1.025320e+00
9.282090e-01
1.025430e+00
9.282090e-01
1.025430e+00
9.282810e-01
1.025510e+00
9.282810e-01
1.025510e+00
9.283370e-01
1.025580e+00
9.283370e-01
1.025580e+00
9.283800e-01
1.025630e+00
9.283800e-01
1.025630e+00
9.284130e-01
1.025670e+00
9.284130e-01
1.025670e+00
9.284380e-01
1.025710e+00
9.284380e-01
1.025710e+00
9.284580e-01
1.025730e+00
9.284580e-01
1.025730e+00
9.284720e-01
1.025750e+00
9.284720e-01
1.025750e+00
9.284810e-01
1.025760e+00
9.284810e-01
1.025760e+00
9.284870e-01
1.025770e+00
9.284870e-01
1.025770e+00
9.284890e-01
1.025770e+00
</DataArray>
<DataArray type="Float32" Name="V3" format="ascii">
0.000000e+00
0.000000e+00
6.074290e-03
2.701490e-03
6.074290e-03
2.701490e-03
1.207260e-02
5.332690e-03
1.207260e-02
5.332690e-03
1.791800e-02
7.825280e-03
1.791800e-02
7.825280e-03
2.353130e-02
1.011540e-02
2.353130e-02
1.011540e-02
2.882730e-02
1.214770e-02
2.882730e-02
1.214770e-02
3.370930e-02
1.388060e-02
3.370930e-02
1.388060e-02
3.805970e-02
1.529200e-02
3.805970e-02
1.529200e-02
4.173200e-02
1.638380e-02
4.173200e-02
1.638380e-02
4.455270e-02
1.717500e-02
4.455270e-02
1.717500e-02
4.636620e-02
1.767660e-02
4.636620e-02
1.767660e-02
4.718390e-02
1.783380e-02
4.718390e-02
1.783380e-02
4.717600e-02
1.799270e-02
4.717600e-02
1.799270e-02
4.640280e-02
1.831630e-02
4.640280e-02
1.831630e-02
4.513270e-02
1.875570e-02
4.513270e-02
1.875570e-02
4.353950e-02
1.927110e-02
4.353950e-02
1.927110e-02
4.174180e-02
1.981520e-02
4.174180e-02
1.981520e-02
3.982480e-02
2.034060e-02
3.982480e-02
2.034060e-02
3.785000e-02
2.080500e-02
3.785000e-02
2.080500e-02
3.586180e-02
2.117440e-02
3.586180e-02
2.117440e-02
3.389150e-02
2.142410e-02
3.389150e-02
2.142410e-02
3.196160e-02
2.153890e-02
3.196160e-02
2.153890e-02
3.008730e-02
2.151250e-02
3.008730e-02
2.151250e-02
2.827860e-02
2.134560e-02
2.827860e-02
2.134560e-02
2.654180e-02
2.104470e-02
2.654180e-02
2.104470e-02
2.487980e-02
2.062040e-02
2.487980e-02
2.062040e-02
2.329360e-02
2.008560e-02
2.329360e-02
2.008560e-02
2.178200e-02
1.945450e-02
2.178200e-02
1.945450e-02
2.034260e-02
1.874150e-02
2.034260e-02
1.874150e-02
1.897190e-02
1.796060e-02
1.897190e-02
1.796060e-02
1.766560e-02
1.712470e-02
1.766560e-02
1.712470e-02
1.641890e-02
1.624540e-02
1.641890e-02
1.624540e-02
1.522670e-02
1.533300e-02
1.522670e-02
1.533300e-02
1.408390e-02
1.439620e-02
1.408390e-02
1.439620e-02
1.298540e-02
1.344220e-02
1.298540e-02
1.344220e-02
1.192600e-02
1.247710e-02
1.192600e-02
1.247710e-02
1.090110e-02
1.150560e-02
1.090110e-02
1.150560e-02
9.906170e-03
1.053140e-02
9.906170e-03
1.053140e-02
8.937100e-03
9.557210e-03
8.937100e-03
9.557210e-03
7.990090e-03
8.585010e-03
7.990090e-03
8.585010e-03
7.061740e-03
7.616120e-03
7.061740e-03
7.616120e-03
6.148970e-03
6.651290e-03
6.148970e-03
6.651290e-03
5.249070e-03
5.690810e-03
5.249070e-03
5.690810e-03
4.359590e-03
4.734640e-03
4.359590e-03
4.734640e-03
3.478380e-03
3.782440e-03
3.478380e-03
3.782440e-03
2.603490e-03
2.833650e-03
2.603490e-03
2.833650e-03
1.733190e-03
1.887550e-03
1.733190e-03
1.887550e-03
8.658640e-04
9.433000e-04
8.658640e-04
9.433000e-04
0.000000e+00
0.000000e+00
</DataArray>
<DataArray type="Float32" Name="V4" format="ascii">
9.000000e-01
1.000000e+00
9.000000e-01
1.000000e+00
9.000000e-01
1.000000e+00
9.000000e-01
1.000000e+00
9.000000e-01
1.000000e+00
9.000000e-01
1.000000e+00
9.000000e-01
1.000000e+00
9.000000e-01
1.000000e+00
9.000000e-01
1.000000e+00
9.000000e-01
1.000000e+00
9.000000e-01
1.000000e+00
9.000000e-01
1.000000e+00
9.000000e-01
1.000000e+00
9.000000e-01
1.000000e+00
9.000000e-01
1.000000e+00
9.000000e-01
1.000000e+00
9.000000e-01
1.000000e+00
9.000000e-01
1.000000e+00
9.000000e-01
1.000000e+00
9.000000e-01
1.000000e+00
9.000000e-01
1.000000e+00
9.000000e-01
1.000000e+00
9.000000e-01
1.000000e+00
9.000000e-01
1.000000e+00
9.000000e-01
1.000000e+00
9.000000e-01
1.000000e+00
9.000000e-01
1.000000e+00
9.000000e-01
1.000000e+00
9.000000e-01
1.000000e+00
9.000000e-01
1.000000e+00
9.000000e-01
1.000000e+00
9.000000e-01
1.000000e+00
9.000000e-01
1.000000e+00
9.000000e-01
1.000000e+00
9.000000e-01
1.000000e+00
9.000000e-01
1.000000e+00
9.000000e-01
1.000000e+00
9.000000e-01
1.000000e+00
9.000000e-01
1.000000e+00
9.000000e-01
1.000000e+00
9.000000e-01
1.000000e+00
9.000000e-01
1.000000e+00
9.000000e-01
1.000000e+00
9.000000e-01
1.000000e+00
9.000000e-01
1.000000e+00
9.000000e-01
1.000000e+00
9.000000e-01
1.000000e+00
9.000000e-01
1.000000e+00
9.000000e-01
1.000000e+00
9.000000e-01
1.000000e+00
9.000000e-01
1.000000e+00
9.000000e-01
1.000000e+00
9.000000e-01
1.000000e+00
9.000000e-01
1.000000e+00
9.000000e-01
1.000000e+00
9.000000e-01
1.000000e+00
9.000000e-01
1.000000e+00
9.000000e-01
1.000000e+00
9.000000e-01
1.000000e+00
9.000000e-01
1.000000e+00
9.000000e-01
1.000000e+00
9.000000e-01
1.000000e+00
9.000000e-01
1.000000e+00
9.000000e-01
1.000000e+00
9.000000e-01
1.000000e+00
9.000000e-01
1.000000e+00
9.000000e-01
1.000000e+00
9.000000e-01
1.000000e+00
9.000000e-01
1.000000e+00
9.000000e-01
1.000000e+00
9.000000e-01
1.000000e+00
9.000000e-01
1.000000e+00
9.000000e-01
1.000000e+00
9.000000e-01
1.000000e+00
9.000000e-01
1.000000e+00
9.000000e-01
1.000000e+00
9.000000e-01
1.000000e+00
9.000000e-01
1.000000e+00
9.000000e-01
1.000000e+00
9.000000e-01
1.000000e+00
9.000000e-01
1.000000e+00
9.000000e-01
1.000000e+00
9.000000e-01
1.000000e+00
9.000000e-01
1.000000e+00
9.000000e-01
1.000000e+00
9.000000e-01
1.000000e+00
9.000000e-01
1.000000e+00
9.000000e-01
1.000000e+00
9.000000e-01
1.000000e+00
9.000000e-01
1.000000e+00
9.000000e-01
1.000000e+00
9.000000e-01
1.000000e+00
9.000000e-01
1.000000e+00
9.000000e-01
1.000000e+00
9.000000e-01
1.000000e+00
9.000000e-01
1.000000e+00
</DataArray>
<DataArray type="Float32" Name="V5" format="ascii">
0.000000e+00
0.000000e+00
3.272490e-02
3.272490e-02
3.272490e-02
3.272490e-02
6.544980e-02
6.544980e-02
6.544980e-02
6.544980e-02
9.817480e-02
9.817480e-02
9.817480e-02
9.817480e-02
1.309000e-01
1.309000e-01
1.309000e-01
1.309000e-01
1.636250e-01
1.636250e-01
1.636250e-01
1.636250e-01
1.963500e-01
1.963500e-01
1.963500e-01
1.963500e-01
2.290740e-01
2.290740e-01
2.290740e-01
2.290740e-01
2.617990e-01
2.617990e-01
2.617990e-01
2.617990e-01
2.945240e-01
2.945240e-01
2.945240e-01
2.945240e-01
3.272490e-01
3.272490e-01
3.272490e-01
3.272490e-01
3.599740e-01
3.599740e-01
3.599740e-01
3.599740e-01
3.926990e-01
3.926990e-01
3.926990e-01
3.926990e-01
4.254240e-01
4.254240e-01
4.254240e-01
4.254240e-01
4.581490e-01
4.581490e-01
4.581490e-01
4.581490e-01
4.908740e-01
4.908740e-01
4.908740e-01
4.908740e-01
5.235990e-01
5.235990e-01
5.235990e-01
5.235990e-01
5.563240e-01
5.563240e-01
5.563240e-01
5.563240e-01
5.890490e-01
5.890490e-01
5.890490e-01
5.890490e-01
6.217740e-01
6.217740e-01
6.217740e-01
6.217740e-01
6.544980e-01
6.544980e-01
6.544980e-01
6.544980e-01
6.872230e-01
6.872230e-01
6.872230e-01
6.872230e-01
7.199480e-01
7.199480e-01
7.199480e-01
7.199480e-01
7.526730e-01
7.526730e-01
7.526730e-01
7.526730e-01
7.853980e-01
7.853980e-01
7.853980e-01
7.853980e-01
8.181230e-01
8.181230e-01
8.181230e-01
8.181230e-01
8.508480e-01
8.508480e-01
8.508480e-01
8.508480e-01
8.835730e-01
8.835730e-01
8.835730e-01
8.835730e-01
9.162980e-01
9.162980e-01
9.162980e-01
9.162980e-01
9.490230e-01
9.490230e-01
9.490230e-01
9.490230e-01
9.817480e-01
9.817480e-01
9.817480e-01
9.817480e-01
1.014470e+00
1.014470e+00
1.014470e+00
1.014470e+00
1.047200e+00
1.047200e+00
1.047200e+00
1.047200e+00
1.079920e+00
1.079920e+00
1.079920e+00
1.079920e+00
1.112650e+00
1.112650e+00
1.112650e+00
1.112650e+00
1.145370e+00
1.145370e+00
1.145370e+00
1.145370e+00
1.178100e+00
1.178100e+00
1.178100e+00
1.178100e+00
1.210820e+00
1.210820e+00
1.210820e+00
1.210820e+00
1.243550e+00
1.243550e+00
1.243550e+00
1.243550e+00
1.276270e+00
1.276270e+00
1.276270e+00
1.276270e+00
1.309000e+00
1.309000e+00
1.309000e+00
1.309000e+00
1.341720e+00
1.341720e+00
1.341720e+00
1.341720e+00
1.374450e+00
1.374450e+00
1.374450e+00
1.374450e+00
1.407170e+00
1.407170e+00
1.407170e+00
1.407170e+00
1.439900e+00
1.439900e+00
1.439900e+00
1.439900e+00
1.472620e+00
1.472620e+00
1.472620e+00
1.472620e+00
1.505350e+00
1.505350e+00
1.505350e+00
1.505350e+00
1.538070e+00
1.538070e+00
1.538070e+00
1.538070e+00
1.570800e+00
1.570800e+00
</DataArray>
</PointData>
</Piece></UnstructuredGrid>
</VTKFile>
