<?xml version="1.0"?>
<VTKFile type="UnstructuredGrid" version="0.1" byte_order="LittleEndian" compressor="vtkZLibDataCompressor">
<UnstructuredGrid>
<Piece NumberOfPoints="192" NumberOfCells="48">
<Points>
<DataArray type="Float32" NumberOfComponents="3" format="ascii">
0.000000e+00 7.290730e-01 0.000000e+00
0.000000e+00 8.300000e-01 0.000000e+00
3.098870e-02 7.290870e-01 0.000000e+00
3.094510e-02 8.300000e-01 0.000000e+00
3.098870e-02 7.290870e-01 0.000000e+00
3.094510e-02 8.300000e-01 0.000000e+00
6.197630e-02 7.291270e-01 0.000000e+00
6.188750e-02 8.300000e-01 0.000000e+00
6.197630e-02 7.291270e-01 0.000000e+00
6.188750e-02 8.300000e-01 0.000000e+00
9.296170e-02 7.291950e-01 0.000000e+00
9.282490e-02 8.300000e-01 0.000000e+00
9.296170e-02 7.291950e-01 0.000000e+00
9.282490e-02 8.300000e-01 0.000000e+00
1.239440e-01 7.292940e-01 0.000000e+00
1.237560e-01 8.300000e-01 0.000000e+00
1.239440e-01 7.292940e-01 0.000000e+00
1.237560e-01 8.300000e-01 0.000000e+00
1.549220e-01 7.294280e-01 0.000000e+00
1.546830e-01 8.300000e-01 0.000000e+00
1.549220e-01 7.294280e-01 0.000000e+00
1.546830e-01 8.300000e-01 0.000000e+00
1.858910e-01 7.296040e-01 0.000000e+00
1.856120e-01 8.300000e-01 0.000000e+00
1.858910e-01 7.296040e-01 0.000000e+00
1.856120e-01 8.300000e-01 0.000000e+00
2.168400e-01 7.298340e-01 0.000000e+00
2.165610e-01 8.300000e-01 0.000000e+00
2.168400e-01 7.298340e-01 0.000000e+00
2.165610e-01 8.300000e-01 0.000000e+00
2.477450e-01 7.301300e-01 0.000000e+00
2.475630e-01 8.300000e-01 0.000000e+00
2.477450e-01 7.301300e-01 0.000000e+00
2.475630e-01 8.300000e-01 0.000000e+00
2.785530e-01 7.305010e-01 0.000000e+00
2.786760e-01 8.300000e-01 0.000000e+00
2.785530e-01 7.305010e-01 0.000000e+00
2.786760e-01 8.300000e-01 0.000000e+00
3.091670e-01 7.309240e-01 0.000000e+00
3.099880e-01 8.300000e-01 0.000000e+00
3.091670e-01 7.309240e-01 0.000000e+00
3.099880e-01 8.300000e-01 0.000000e+00
3.394320e-01 7.313060e-01 0.000000e+00
3.416030e-01 8.300000e-01 0.000000e+00
3.394320e-01 7.313060e-01 0.000000e+00
3.416030e-01 8.300000e-01 0.000000e+00
3.691650e-01 7.313900e-01 0.000000e+00
3.736070e-01 8.300000e-01 0.000000e+00
3.691650e-01 7.313900e-01 0.000000e+00
3.736070e-01 8.300000e-01 0.000000e+00
3.983790e-01 7.308500e-01 0.000000e+00
4.059340e-01 8.296770e-01 0.000000e+00
3.983790e-01 7.308500e-01 0.000000e+00
4.059340e-01 8.296770e-01 0.000000e+00
4.269920e-01 7.292480e-01 0.000000e+00
4.385010e-01 8.275140e-01 0.000000e+00
4.269920e-01 7.292480e-01 0.000000e+00
4.385010e-01 8.275140e-01 0.000000e+00
4.549740e-01 7.262740e-01 0.000000e+00
4.712420e-01 8.234920e-01 0.000000e+00
4.549740e-01 7.262740e-01 0.000000e+00
4.712420e-01 8.234920e-01 0.000000e+00
4.824010e-01 7.216920e-01 0.000000e+00
5.039340e-01 8.174930e-01 0.000000e+00
4.824010e-01 7.216920e-01 0.000000e+00
5.039340e-01 8.174930e-01 0.000000e+00
5.092860e-01 7.154090e-01 0.000000e+00
5.363380e-01 8.094220e-01 0.000000e+00
5.092860e-01 7.154090e-01 0.000000e+00
5.363380e-01 8.094220e-01 0.000000e+00
5.356030e-01 7.073920e-01 0.000000e+00
5.682280e-01 7.992620e-01 0.000000e+00
5.356030e-01 7.073920e-01 0.000000e+00
5.682280e-01 7.992620e-01 0.000000e+00
5.613120e-01 6.976530e-01 0.000000e+00
5.994080e-01 7.870600e-01 0.000000e+00
5.613120e-01 6.976530e-01 0.000000e+00
5.994080e-01 7.870600e-01 0.000000e+00
5.863650e-01 6.862390e-01 0.000000e+00
6.297190e-01 7.729130e-01 0.000000e+00
5.863650e-01 6.862390e-01 0.000000e+00
6.297190e-01 7.729130e-01 0.000000e+00
6.107180e-01 6.732160e-01 0.000000e+00
6.590410e-01 7.569460e-01 0.000000e+00
6.107180e-01 6.732160e-01 0.000000e+00
6.590410e-01 7.569460e-01 0.000000e+00
6.343270e-01 6.586700e-01 0.000000e+00
6.872890e-01 7.393010e-01 0.000000e+00
6.343270e-01 6.586700e-01 0.000000e+00
6.872890e-01 7.393010e-01 0.000000e+00
6.571580e-01 6.426930e-01 0.000000e+00
7.144110e-01 7.201240e-01 0.000000e+00
6.571580e-01 6.426930e-01 0.000000e+00
7.144110e-01 7.201240e-01 0.000000e+00
6.791840e-01 6.253850e-01 0.000000e+00
7.403760e-01 6.995570e-01 0.000000e+00
6.791840e-01 6.253850e-01 0.000000e+00
7.403760e-01 6.995570e-01 0.000000e+00
7.003820e-01 6.068420e-01 0.000000e+00
7.651750e-01 6.777330e-01 0.000000e+00
7.003820e-01 6.068420e-01 0.000000e+00
7.651750e-01 6.777330e-01 0.000000e+00
7.207370e-01 5.871620e-01 0.000000e+00
7.888120e-01 6.547760e-01 0.000000e+00
7.207370e-01 5.871620e-01 0.000000e+00
7.888120e-01 6.547760e-01 0.000000e+00
7.402370e-01 5.664370e-01 0.000000e+00
8.113010e-01 6.307930e-01 0.000000e+00
7.402370e-01 5.664370e-01 0.000000e+00
8.113010e-01 6.307930e-01 0.000000e+00
7.588740e-01 5.447520e-01 0.000000e+00
8.326580e-01 6.058840e-01 0.000000e+00
7.588740e-01 5.447520e-01 0.000000e+00
8.326580e-01 6.058840e-01 0.000000e+00
7.766420e-01 5.221890e-01 0.000000e+00
8.529040e-01 5.801320e-01 0.000000e+00
7.766420e-01 5.221890e-01 0.000000e+00
8.529040e-01 5.801320e-01 0.000000e+00
7.935380e-01 4.988220e-01 0.000000e+00
8.720570e-01 5.536150e-01 0.000000e+00
7.935380e-01 4.988220e-01 0.000000e+00
8.720570e-01 5.536150e-01 0.000000e+00
8.095570e-01 4.747190e-01 0.000000e+00
8.901380e-01 5.263980e-01 0.000000e+00
8.095570e-01 4.747190e-01 0.000000e+00
8.901380e-01 5.263980e-01 0.000000e+00
8.246970e-01 4.499450e-01 0.000000e+00
9.071600e-01 4.985390e-01 0.000000e+00
8.246970e-01 4.499450e-01 0.000000e+00
9.071600e-01 4.985390e-01 0.000000e+00
8.389530e-01 4.245570e-01 0.000000e+00
9.231370e-01 4.700930e-01 0.000000e+00
8.389530e-01 4.245570e-01 0.000000e+00
9.231370e-01 4.700930e-01 0.000000e+00
8.523230e-01 3.986090e-01 0.000000e+00
9.380800e-01 4.411060e-01 0.000000e+00
8.523230e-01 3.986090e-01 0.000000e+00
9.380800e-01 4.411060e-01 0.000000e+00
8.648020e-01 3.721500e-01 0.000000e+00
9.519950e-01 4.116230e-01 0.000000e+00
8.648020e-01 3.721500e-01 0.000000e+00
9.519950e-01 4.116230e-01 0.000000e+00
8.763860e-01 3.452270e-01 0.000000e+00
9.648870e-01 3.816840e-01 0.000000e+00
8.763860e-01 3.452270e-01 0.000000e+00
9.648870e-01 3.816840e-01 0.000000e+00
8.870700e-01 3.178820e-01 0.000000e+00
9.767600e-01 3.513280e-01 0.000000e+00
8.870700e-01 3.178820e-01 0.000000e+00
9.767600e-01 3.513280e-01 0.000000e+00
8.968490e-01 2.901580e-01 0.000000e+00
9.876120e-01 3.205920e-01 0.000000e+00
8.968490e-01 2.901580e-01 0.000000e+00
9.876120e-01 3.205920e-01 0.000000e+00
9.057180e-01 2.620920e-01 0.000000e+00
9.974440e-01 2.895120e-01 0.000000e+00
9.057180e-01 2.620920e-01 0.000000e+00
9.974440e-01 2.895120e-01 0.000000e+00
9.136700e-01 2.337220e-01 0.000000e+00
1.006250e+00 2.581220e-01 0.000000e+00
9.136700e-01 2.337220e-01 0.000000e+00
1.006250e+00 2.581220e-01 0.000000e+00
9.207010e-01 2.050850e-01 0.000000e+00
1.014040e+00 2.264590e-01 0.000000e+00
9.207010e-01 2.050850e-01 0.000000e+00
1.014040e+00 2.264590e-01 0.000000e+00
9.268060e-01 1.762140e-01 0.000000e+00
1.020790e+00 1.945540e-01 0.000000e+00
9.268060e-01 1.762140e-01 0.000000e+00
1.020790e+00 1.945540e-01 0.000000e+00
9.319810e-01 1.471460e-01 0.000000e+00
1.026520e+00 1.624440e-01 0.000000e+00
9.319810e-01 1.471460e-01 0.000000e+00
1.026520e+00 1.624440e-01 0.000000e+00
9.362210e-01 1.179130e-01 0.000000e+00
1.031210e+00 1.301620e-01 0.000000e+00
9.362210e-01 1.179130e-01 0.000000e+00
1.031210e+00 1.301620e-01 0.000000e+00
9.395220e-01 8.854930e-02 0.000000e+00
1.034850e+00 9.774200e-02 0.000000e+00
9.395220e-01 8.854930e-02 0.000000e+00
1.034850e+00 9.774200e-02 0.000000e+00
9.418820e-01 5.908730e-02 0.000000e+00
1.037460e+00 6.521880e-02 0.000000e+00
9.418820e-01 5.908730e-02 0.000000e+00
1.037460e+00 6.521880e-02 0.000000e+00
9.432990e-01 2.956000e-02 0.000000e+00
1.039030e+00 3.262660e-02 0.000000e+00
9.432990e-01 2.956000e-02 0.000000e+00
1.039030e+00 3.262660e-02 0.000000e+00
9.437710e-01 4.621260e-12 0.000000e+00
1.039550e+00 5.090260e-12 0.000000e+00
</DataArray>
</Points>
<Cells>
<DataArray type="Int32" Name="connectivity" format="ascii">
0 1 3 2
4 5 7 6
8 9 11 10
12 13 15 14
16 17 19 18
20 21 23 22
24 25 27 26
28 29 31 30
32 33 35 34
36 37 39 38
40 41 43 42
44 45 47 46
48 49 51 50
52 53 55 54
56 57 59 58
60 61 63 62
64 65 67 66
68 69 71 70
72 73 75 74
76 77 79 78
80 81 83 82
84 85 87 86
88 89 91 90
92 93 95 94
96 97 99 98
100 101 103 102
104 105 107 106
108 109 111 110
112 113 115 114
116 117 119 118
120 121 123 122
124 125 127 126
128 129 131 130
132 133 135 134
136 137 139 138
140 141 143 142
144 145 147 146
148 149 151 150
152 153 155 154
156 157 159 158
160 161 163 162
164 165 167 166
168 169 171 170
172 173 175 174
176 177 179 178
180 181 183 182
184 185 187 186
188 189 191 190
</DataArray>
<DataArray type="Int32" Name="offsets" format="ascii">
4
8
12
16
20
24
28
32
36
40
44
48
52
56
60
64
68
72
76
80
84
88
92
96
100
104
108
112
116
120
124
128
132
136
140
144
148
152
156
160
164
168
172
176
180
184
188
192
</DataArray>
<DataArray type="UInt8" Name="types" format="ascii">
9
9
9
9
9
9
9
9
9
9
9
9
9
9
9
9
9
9
9
9
9
9
9
9
9
9
9
9
9
9
9
9
9
9
9
9
9
9
9
9
9
9
9
9
9
9
9
9
</DataArray>
</Cells>
<PointData>
<DataArray type="Float32" Name="V1" format="ascii">
8.351030e-01
-1.223060e+00
8.366290e-01
-1.221540e+00
8.371320e-01
-1.221590e+00
8.406690e-01
-1.218050e+00
8.416160e-01
-1.218460e+00
8.477120e-01
-1.212360e+00
8.491220e-01
-1.213340e+00
8.574720e-01
-1.204990e+00
8.595110e-01
-1.206610e+00
8.696130e-01
-1.196500e+00
8.721770e-01
-1.198610e+00
8.831740e-01
-1.187610e+00
8.853880e-01
-1.189330e+00
8.959590e-01
-1.178760e+00
8.951400e-01
-1.177560e+00
9.035970e-01
-1.169100e+00
8.933470e-01
-1.159020e+00
8.983880e-01
-1.153980e+00
8.655700e-01
-1.122960e+00
8.686610e-01
-1.119870e+00
7.897040e-01
-1.046600e+00
8.008760e-01
-1.035430e+00
6.397920e-01
-8.876750e-01
6.883890e-01
-8.390780e-01
4.042370e-01
-5.534360e-01
5.002950e-01
-4.573780e-01
2.263690e-01
-1.959720e-01
2.709870e-01
-1.513540e-01
8.600810e-02
1.621910e-02
1.170790e-01
4.729040e-02
-2.124150e-02
1.756060e-01
1.058880e-02
2.074360e-01
-8.901920e-02
2.999210e-01
-5.655470e-02
3.323860e-01
-1.233490e-01
3.942530e-01
-9.158990e-02
4.260120e-01
-1.312010e-01
4.626240e-01
-1.011910e-01
4.926330e-01
-1.190060e-01
5.090670e-01
-9.145790e-02
5.366150e-01
-9.246920e-02
5.375190e-01
-6.781420e-02
5.621740e-01
-5.647130e-02
5.516600e-01
-3.490600e-02
5.732260e-01
-1.502360e-02
5.548100e-01
3.443250e-03
5.732770e-01
2.871710e-02
5.498600e-01
4.421510e-02
5.653580e-01
7.237860e-02
5.392460e-01
8.513050e-02
5.519980e-01
1.142730e-01
5.249580e-01
1.245550e-01
5.352410e-01
1.532780e-01
5.085680e-01
1.613930e-01
5.166820e-01
1.887280e-01
4.912780e-01
1.949780e-01
4.975280e-01
2.203040e-01
4.739750e-01
2.249790e-01
4.786500e-01
2.479400e-01
4.572810e-01
2.513090e-01
4.606490e-01
2.717550e-01
4.416100e-01
2.740580e-01
4.439130e-01
2.919830e-01
4.272130e-01
2.934330e-01
4.286620e-01
3.089330e-01
4.142150e-01
3.097120e-01
4.149940e-01
3.229480e-01
4.026510e-01
3.232130e-01
4.029160e-01
3.343860e-01
3.924950e-01
3.342670e-01
3.923760e-01
3.435940e-01
3.836730e-01
3.432010e-01
3.832800e-01
3.509040e-01
3.760910e-01
3.503240e-01
3.755110e-01
3.566190e-01
3.696350e-01
3.559260e-01
3.689420e-01
3.610150e-01
3.641900e-01
3.602660e-01
3.634410e-01
3.643350e-01
3.596420e-01
3.635760e-01
3.588830e-01
3.667920e-01
3.558800e-01
3.660590e-01
3.551470e-01
3.685670e-01
3.528050e-01
3.678880e-01
3.521260e-01
3.698140e-01
3.503280e-01
3.692100e-01
3.497250e-01
3.706590e-01
3.483720e-01
3.701470e-01
3.478600e-01
3.712060e-01
3.468710e-01
3.707970e-01
3.464620e-01
3.715330e-01
3.457750e-01
3.712350e-01
3.454780e-01
3.716980e-01
3.450450e-01
3.715180e-01
3.448650e-01
3.717410e-01
3.446560e-01
3.716810e-01
3.445960e-01
</DataArray>
<DataArray type="Float32" Name="V2" format="ascii">
7.290730e-01
8.300000e-01
7.297100e-01
8.305680e-01
7.297100e-01
8.305680e-01
7.316190e-01
8.322710e-01
7.316190e-01
8.322710e-01
7.347960e-01
8.351020e-01
7.347960e-01
8.351020e-01
7.392330e-01
8.390530e-01
7.392330e-01
8.390530e-01
7.449210e-01
8.441110e-01
7.449210e-01
8.441110e-01
7.518500e-01
8.502630e-01
7.518500e-01
8.502630e-01
7.600080e-01
8.574940e-01
7.600080e-01
8.574940e-01
7.693730e-01
8.657920e-01
7.693730e-01
8.657920e-01
7.799050e-01
8.751560e-01
7.799050e-01
8.751560e-01
7.915130e-01
8.855950e-01
7.915130e-01
8.855950e-01
8.039980e-01
8.971320e-01
8.039980e-01
8.971320e-01
8.169900e-01
9.097930e-01
8.169900e-01
9.097930e-01
8.301190e-01
9.232540e-01
8.301190e-01
9.232540e-01
8.428960e-01
9.361190e-01
8.428960e-01
9.361190e-01
8.549890e-01
9.483970e-01
8.549890e-01
9.483970e-01
8.662040e-01
9.599370e-01
8.662040e-01
9.599370e-01
8.764640e-01
9.705860e-01
8.764640e-01
9.705860e-01
8.857400e-01
9.802520e-01
8.857400e-01
9.802520e-01
8.940370e-01
9.889010e-01
8.940370e-01
9.889010e-01
9.013860e-01
9.965410e-01
9.013860e-01
9.965410e-01
9.078380e-01
1.003220e+00
9.078380e-01
1.003220e+00
9.134550e-01
1.009000e+00
9.134550e-01
1.009000e+00
9.183070e-01
1.013960e+00
9.183070e-01
1.013960e+00
9.224690e-01
1.018190e+00
9.224690e-01
1.018190e+00
9.260160e-01
1.021770e+00
9.260160e-01
1.021770e+00
9.290220e-01
1.024780e+00
9.290220e-01
1.024780e+00
9.315540e-01
1.027310e+00
9.315540e-01
1.027310e+00
9.336790e-01
1.029430e+00
9.336790e-01
1.029430e+00
9.354540e-01
1.031190e+00
9.354540e-01
1.031190e+00
9.369330e-01
1.032660e+00
9.369330e-01
1.032660e+00
9.381620e-01
1.033880e+00
9.381620e-01
1.033880e+00
9.391810e-01
1.034890e+00
9.391810e-01
1.034890e+00
9.400260e-01
1.035730e+00
9.400260e-01
1.035730e+00
9.407260e-01
1.036430e+00
9.407260e-01
1.036430e+00
9.413060e-01
1.037020e+00
9.413060e-01
1.037020e+00
9.417880e-01
1.037500e+00
9.417880e-01
1.037500e+00
9.421890e-01
1.037910e+00
9.421890e-01
1.037910e+00
9.425220e-01
1.038250e+00
9.425220e-01
1.038250e+00
9.427990e-01
1.038540e+00
9.427990e-01
1.038540e+00
9.430290e-01
1.038770e+00
9.430290e-01
1.038770e+00
9.432200e-01
1.038970e+00
9.432200e-01
1.038970e+00
9.433760e-01
1.039140e+00
9.433760e-01
1.039140e+00
9.435020e-01
1.039270e+00
9.435020e-01
1.039270e+00
9.436020e-01
1.039370e+00
9.436020e-01
1.039370e+00
9.436770e-01
1.039450e+00
9.436770e-01
1.039450e+00
9.437300e-01
1.039510e+00
9.437300e-01
1.039510e+00
9.437610e-01
1.039540e+00
9.437610e-01
1.039540e+00
9.437710e-01
1.039550e+00
</DataArray>
<DataArray type="Float32" Name="V3" format="ascii">
0.000000e+00
0.000000e+00
7.117030e-03
3.771680e-03
7.117030e-03
3.771680e-03
1.415640e-02
7.470370e-03
1.415640e-02
7.470370e-03
2.104050e-02
1.102370e-02
2.104050e-02
1.102370e-02
2.769180e-02
1.436070e-02
2.769180e-02
1.436070e-02
3.403210e-02
1.741350e-02
3.403210e-02
1.741350e-02
3.998010e-02
2.012040e-02
3.998010e-02
2.012040e-02
4.544750e-02
2.243000e-02
4.544750e-02
2.243000e-02
5.033160e-02
2.430730e-02
5.033160e-02
2.430730e-02
5.450550e-02
2.574040e-02
5.450550e-02
2.574040e-02
5.781150e-02
2.674260e-02
5.781150e-02
2.674260e-02
6.007340e-02
2.734120e-02
6.007340e-02
2.734120e-02
6.117270e-02
2.754090e-02
6.117270e-02
2.754090e-02
6.124210e-02
2.733710e-02
6.124210e-02
2.733710e-02
6.041910e-02
2.727990e-02
6.041910e-02
2.727990e-02
5.888790e-02
2.740720e-02
5.888790e-02
2.740720e-02
5.692530e-02
2.767340e-02
5.692530e-02
2.767340e-02
5.470200e-02
2.802970e-02
5.470200e-02
2.802970e-02
5.233170e-02
2.841810e-02
5.233170e-02
2.841810e-02
4.989290e-02
2.878150e-02
4.989290e-02
2.878150e-02
4.743920e-02
2.906990e-02
4.743920e-02
2.906990e-02
4.500720e-02
2.924400e-02
4.500720e-02
2.924400e-02
4.262100e-02
2.927640e-02
4.262100e-02
2.927640e-02
4.029600e-02
2.915140e-02
4.029600e-02
2.915140e-02
3.804170e-02
2.886310e-02
3.804170e-02
2.886310e-02
3.586330e-02
2.841440e-02
3.586330e-02
2.841440e-02
3.376280e-02
2.781370e-02
3.376280e-02
2.781370e-02
3.173980e-02
2.707400e-02
3.173980e-02
2.707400e-02
2.979240e-02
2.621030e-02
2.979240e-02
2.621030e-02
2.791750e-02
2.523870e-02
2.791750e-02
2.523870e-02
2.611110e-02
2.417520e-02
2.611110e-02
2.417520e-02
2.436830e-02
2.303510e-02
2.436830e-02
2.303510e-02
2.268420e-02
2.183220e-02
2.268420e-02
2.183220e-02
2.105360e-02
2.057890e-02
2.105360e-02
2.057890e-02
1.947110e-02
1.928600e-02
1.947110e-02
1.928600e-02
1.793180e-02
1.796260e-02
1.793180e-02
1.796260e-02
1.643050e-02
1.661650e-02
1.643050e-02
1.661650e-02
1.496260e-02
1.525370e-02
1.496260e-02
1.525370e-02
1.352370e-02
1.387930e-02
1.352370e-02
1.387930e-02
1.210970e-02
1.249730e-02
1.210970e-02
1.249730e-02
1.071710e-02
1.111050e-02
1.071710e-02
1.111050e-02
9.342330e-03
9.721230e-03
9.342330e-03
9.721230e-03
7.982470e-03
8.330950e-03
7.982470e-03
8.330950e-03
6.634780e-03
6.940690e-03
6.634780e-03
6.940690e-03
5.296800e-03
5.551030e-03
5.296800e-03
5.551030e-03
3.966300e-03
4.162220e-03
3.966300e-03
4.162220e-03
2.641250e-03
2.774250e-03
2.641250e-03
2.774250e-03
1.319750e-03
1.386950e-03
1.319750e-03
1.386950e-03
0.000000e+00
0.000000e+00
</DataArray>
<DataArray type="Float32" Name="V4" format="ascii">
9.000000e-01
1.000000e+00
9.000000e-01
1.000000e+00
9.000000e-01
1.000000e+00
9.000000e-01
1.000000e+00
9.000000e-01
1.000000e+00
9.000000e-01
1.000000e+00
9.000000e-01
1.000000e+00
9.000000e-01
1.000000e+00
9.000000e-01
1.000000e+00
9.000000e-01
1.000000e+00
9.000000e-01
1.000000e+00
9.000000e-01
1.000000e+00
9.000000e-01
1.000000e+00
9.000000e-01
1.000000e+00
9.000000e-01
1.000000e+00
9.000000e-01
1.000000e+00
9.000000e-01
1.000000e+00
9.000000e-01
1.000000e+00
9.000000e-01
1.000000e+00
9.000000e-01
1.000000e+00
9.000000e-01
1.000000e+00
9.000000e-01
1.000000e+00
9.000000e-01
1.000000e+00
9.000000e-01
1.000000e+00
9.000000e-01
1.000000e+00
9.000000e-01
1.000000e+00
9.000000e-01
1.000000e+00
9.000000e-01
1.000000e+00
9.000000e-01
1.000000e+00
9.000000e-01
1.000000e+00
9.000000e-01
1.000000e+00
9.000000e-01
1.000000e+00
9.000000e-01
1.000000e+00
9.000000e-01
1.000000e+00
9.000000e-01
1.000000e+00
9.000000e-01
1.000000e+00
9.000000e-01
1.000000e+00
9.000000e-01
1.000000e+00
9.000000e-01
1.000000e+00
9.000000e-01
1.000000e+00
9.000000e-01
1.000000e+00
9.000000e-01
1.000000e+00
9.000000e-01
1.000000e+00
9.000000e-01
1.000000e+00
9.000000e-01
1.000000e+00
9.000000e-01
1.000000e+00
9.000000e-01
1.000000e+00
9.000000e-01
1.000000e+00
9.000000e-01
1.000000e+00
9.000000e-01
1.000000e+00
9.000000e-01
1.000000e+00
9.000000e-01
1.000000e+00
9.000000e-01
1.000000e+00
9.000000e-01
1.000000e+00
9.000000e-01
1.000000e+00
9.000000e-01
1.000000e+00
9.000000e-01
1.000000e+00
9.000000e-01
1.000000e+00
9.000000e-01
1.000000e+00
9.000000e-01
1.000000e+00
9.000000e-01
1.000000e+00
9.000000e-01
1.000000e+00
9.000000e-01
1.000000e+00
9.000000e-01
1.000000e+00
9.000000e-01
1.000000e+00
9.000000e-01
1.000000e+00
9.000000e-01
1.000000e+00
9.000000e-01
1.000000e+00
9.000000e-01
1.000000e+00
9.000000e-01
1.000000e+00
9.000000e-01
1.000000e+00
9.000000e-01
1.000000e+00
9.000000e-01
1.000000e+00
9.000000e-01
1.000000e+00
9.000000e-01
1.000000e+00
9.000000e-01
1.000000e+00
9.000000e-01
1.000000e+00
9.000000e-01
1.000000e+00
9.000000e-01
1.000000e+00
9.000000e-01
1.000000e+00
9.000000e-01
1.000000e+00
9.000000e-01
1.000000e+00
9.000000e-01
1.000000e+00
9.000000e-01
1.000000e+00
9.000000e-01
1.000000e+00
9.000000e-01
1.000000e+00
9.000000e-01
1.000000e+00
9.000000e-01
1.000000e+00
9.000000e-01
1.000000e+00
9.000000e-01
1.000000e+00
9.000000e-01
1.000000e+00
9.000000e-01
1.000000e+00
9.000000e-01
1.000000e+00
9.000000e-01
1.000000e+00
9.000000e-01
1.000000e+00
9.000000e-01
1.000000e+00
</DataArray>
<DataArray type="Float32" Name="V5" format="ascii">
0.000000e+00
0.000000e+00
3.272490e-02
3.272490e-02
3.272490e-02
3.272490e-02
6.544980e-02
6.544980e-02
6.544980e-02
6.544980e-02
9.817480e-02
9.817480e-02
9.817480e-02
9.817480e-02
1.309000e-01
1.309000e-01
1.309000e-01
1.309000e-01
1.636250e-01
1.636250e-01
1.636250e-01
1.636250e-01
1.963500e-01
1.963500e-01
1.963500e-01
1.963500e-01
2.290740e-01
2.290740e-01
2.290740e-01
2.290740e-01
2.617990e-01
2.617990e-01
2.617990e-01
2.617990e-01
2.945240e-01
2.945240e-01
2.945240e-01
2.945240e-01
3.272490e-01
3.272490e-01
3.272490e-01
3.272490e-01
3.599740e-01
3.599740e-01
3.599740e-01
3.599740e-01
3.926990e-01
3.926990e-01
3.926990e-01
3.926990e-01
4.254240e-01
4.254240e-01
4.254240e-01
4.254240e-01
4.581490e-01
4.581490e-01
4.581490e-01
4.581490e-01
4.908740e-01
4.908740e-01
4.908740e-01
4.908740e-01
5.235990e-01
5.235990e-01
5.235990e-01
5.235990e-01
5.563240e-01
5.563240e-01
5.563240e-01
5.563240e-01
5.890490e-01
5.890490e-01
5.890490e-01
5.890490e-01
6.217740e-01
6.217740e-01
6.217740e-01
6.217740e-01
6.544980e-01
6.544980e-01
6.544980e-01
6.544980e-01
6.872230e-01
6.872230e-01
6.872230e-01
6.872230e-01
7.199480e-01
7.199480e-01
7.199480e-01
7.199480e-01
7.526730e-01
7.526730e-01
7.526730e-01
7.526730e-01
7.853980e-01
7.853980e-01
7.853980e-01
7.853980e-01
8.181230e-01
8.181230e-01
8.181230e-01
8.181230e-01
8.508480e-01
8.508480e-01
8.508480e-01
8.508480e-01
8.835730e-01
8.835730e-01
8.835730e-01
8.835730e-01
9.162980e-01
9.162980e-01
9.162980e-01
9.162980e-01
9.490230e-01
9.490230e-01
9.490230e-01
9.490230e-01
9.817480e-01
9.817480e-01
9.817480e-01
9.817480e-01
1.014470e+00
1.014470e+00
1.014470e+00
1.014470e+00
1.047200e+00
1.047200e+00
1.047200e+00
1.047200e+00
1.079920e+00
1.079920e+00
1.079920e+00
1.079920e+00
1.112650e+00
1.112650e+00
1.112650e+00
1.112650e+00
1.145370e+00
1.145370e+00
1.145370e+00
1.145370e+00
1.178100e+00
1.178100e+00
1.178100e+00
1.178100e+00
1.210820e+00
1.210820e+00
1.210820e+00
1.210820e+00
1.243550e+00
1.243550e+00
1.243550e+00
1.243550e+00
1.276270e+00
1.276270e+00
1.276270e+00
1.276270e+00
1.309000e+00
1.309000e+00
1.309000e+00
1.309000e+00
1.341720e+00
1.341720e+00
1.341720e+00
1.341720e+00
1.374450e+00
1.374450e+00
1.374450e+00
1.374450e+00
1.407170e+00
1.407170e+00
1.407170e+00
1.407170e+00
1.439900e+00
1.439900e+00
1.439900e+00
1.439900e+00
1.472620e+00
1.472620e+00
1.472620e+00
1.472620e+00
1.505350e+00
1.505350e+00
1.505350e+00
1.505350e+00
1.538070e+00
1.538070e+00
1.538070e+00
1.538070e+00
1.570800e+00
1.570800e+00
</DataArray>
</PointData>
</Piece></UnstructuredGrid>
</VTKFile>
