<?xml version="1.0"?>
<VTKFile type="UnstructuredGrid" version="0.1" byte_order="LittleEndian" compressor="vtkZLibDataCompressor">
<UnstructuredGrid>
<Piece NumberOfPoints="192" NumberOfCells="48">
<Points>
<DataArray type="Float32" NumberOfComponents="3" format="ascii">
0.000000e+00 3.539470e-01 0.000000e+00
0.000000e+00 3.862500e-01 0.000000e+00
5.472760e-02 3.539530e-01 0.000000e+00
5.472240e-02 3.862500e-01 0.000000e+00
5.472760e-02 3.539530e-01 0.000000e+00
5.472240e-02 3.862500e-01 0.000000e+00
1.094530e-01 3.539670e-01 0.000000e+00
1.094420e-01 3.862500e-01 0.000000e+00
1.094530e-01 3.539670e-01 0.000000e+00
1.094420e-01 3.862500e-01 0.000000e+00
1.641730e-01 3.539900e-01 0.000000e+00
1.641570e-01 3.862500e-01 0.000000e+00
1.641730e-01 3.539900e-01 0.000000e+00
1.641570e-01 3.862500e-01 0.000000e+00
2.188850e-01 3.540230e-01 0.000000e+00
2.188640e-01 3.862500e-01 0.000000e+00
2.188850e-01 3.540230e-01 0.000000e+00
2.188640e-01 3.862500e-01 0.000000e+00
2.735860e-01 3.540650e-01 0.000000e+00
2.735590e-01 3.862500e-01 0.000000e+00
2.735860e-01 3.540650e-01 0.000000e+00
2.735590e-01 3.862500e-01 0.000000e+00
3.282730e-01 3.541170e-01 0.000000e+00
3.282410e-01 3.862500e-01 0.000000e+00
3.282730e-01 3.541170e-01 0.000000e+00
3.282410e-01 3.862500e-01 0.000000e+00
3.829420e-01 3.541770e-01 0.000000e+00
3.829050e-01 3.862500e-01 0.000000e+00
3.829420e-01 3.541770e-01 0.000000e+00
3.829050e-01 3.862500e-01 0.000000e+00
4.375920e-01 3.542470e-01 0.000000e+00
4.375510e-01 3.862500e-01 0.000000e+00
4.375920e-01 3.542470e-01 0.000000e+00
4.375510e-01 3.862500e-01 0.000000e+00
4.922200e-01 3.543260e-01 0.000000e+00
4.921730e-01 3.862500e-01 0.000000e+00
4.922200e-01 3.543260e-01 0.000000e+00
4.921730e-01 3.862500e-01 0.000000e+00
5.468220e-01 3.544130e-01 0.000000e+00
5.467700e-01 3.862500e-01 0.000000e+00
5.468220e-01 3.544130e-01 0.000000e+00
5.467700e-01 3.862500e-01 0.000000e+00
6.013950e-01 3.545090e-01 0.000000e+00
6.013380e-01 3.862500e-01 0.000000e+00
6.013950e-01 3.545090e-01 0.000000e+00
6.013380e-01 3.862500e-01 0.000000e+00
6.559350e-01 3.546140e-01 0.000000e+00
6.558730e-01 3.862500e-01 0.000000e+00
6.559350e-01 3.546140e-01 0.000000e+00
6.558730e-01 3.862500e-01 0.000000e+00
7.104380e-01 3.547270e-01 0.000000e+00
7.103710e-01 3.862500e-01 0.000000e+00
7.104380e-01 3.547270e-01 0.000000e+00
7.103710e-01 3.862500e-01 0.000000e+00
7.649010e-01 3.548490e-01 0.000000e+00
7.648290e-01 3.862500e-01 0.000000e+00
7.649010e-01 3.548490e-01 0.000000e+00
7.648290e-01 3.862500e-01 0.000000e+00
8.193190e-01 3.549780e-01 0.000000e+00
8.192430e-01 3.862500e-01 0.000000e+00
8.193190e-01 3.549780e-01 0.000000e+00
8.192430e-01 3.862500e-01 0.000000e+00
8.736890e-01 3.551160e-01 0.000000e+00
8.736080e-01 3.862500e-01 0.000000e+00
8.736890e-01 3.551160e-01 0.000000e+00
8.736080e-01 3.862500e-01 0.000000e+00
9.280050e-01 3.552610e-01 0.000000e+00
9.279200e-01 3.862500e-01 0.000000e+00
9.280050e-01 3.552610e-01 0.000000e+00
9.279200e-01 3.862500e-01 0.000000e+00
9.822640e-01 3.554140e-01 0.000000e+00
9.821740e-01 3.862500e-01 0.000000e+00
9.822640e-01 3.554140e-01 0.000000e+00
9.821740e-01 3.862500e-01 0.000000e+00
1.036460e+00 3.555740e-01 0.000000e+00
1.036370e+00 3.862500e-01 0.000000e+00
1.036460e+00 3.555740e-01 0.000000e+00
1.036370e+00 3.862500e-01 0.000000e+00
1.090590e+00 3.557410e-01 0.000000e+00
1.090490e+00 3.862500e-01 0.000000e+00
1.090590e+00 3.557410e-01 0.000000e+00
1.090490e+00 3.862500e-01 0.000000e+00
1.144640e+00 3.559150e-01 0.000000e+00
1.144540e+00 3.862500e-01 0.000000e+00
1.144640e+00 3.559150e-01 0.000000e+00
1.144540e+00 3.862500e-01 0.000000e+00
1.198610e+00 3.560960e-01 0.000000e+00
1.198510e+00 3.862500e-01 0.000000e+00
1.198610e+00 3.560960e-01 0.000000e+00
1.198510e+00 3.862500e-01 0.000000e+00
1.252500e+00 3.562830e-01 0.000000e+00
1.252390e+00 3.862500e-01 0.000000e+00
1.252500e+00 3.562830e-01 0.000000e+00
1.252390e+00 3.862500e-01 0.000000e+00
1.306300e+00 3.564760e-01 0.000000e+00
1.306180e+00 3.862500e-01 0.000000e+00
1.306300e+00 3.564760e-01 0.000000e+00
1.306180e+00 3.862500e-01 0.000000e+00
1.360000e+00 3.566750e-01 0.000000e+00
1.359880e+00 3.862500e-01 0.000000e+00
1.360000e+00 3.566750e-01 0.000000e+00
1.359880e+00 3.862500e-01 0.000000e+00
1.413590e+00 3.568790e-01 0.000000e+00
1.413470e+00 3.862500e-01 0.000000e+00
1.413590e+00 3.568790e-01 0.000000e+00
1.413470e+00 3.862500e-01 0.000000e+00
1.467070e+00 3.570890e-01 0.000000e+00
1.466940e+00 3.862500e-01 0.000000e+00
1.467070e+00 3.570890e-01 0.000000e+00
1.466940e+00 3.862500e-01 0.000000e+00
1.520420e+00 3.573040e-01 0.000000e+00
1.520290e+00 3.862500e-01 0.000000e+00
1.520420e+00 3.573040e-01 0.000000e+00
1.520290e+00 3.862500e-01 0.000000e+00
1.573650e+00 3.575230e-01 0.000000e+00
1.573520e+00 3.862500e-01 0.000000e+00
1.573650e+00 3.575230e-01 0.000000e+00
1.573520e+00 3.862500e-01 0.000000e+00
1.626730e+00 3.577470e-01 0.000000e+00
1.626600e+00 3.862500e-01 0.000000e+00
1.626730e+00 3.577470e-01 0.000000e+00
1.626600e+00 3.862500e-01 0.000000e+00
1.679660e+00 3.579760e-01 0.000000e+00
1.679540e+00 3.862500e-01 0.000000e+00
1.679660e+00 3.579760e-01 0.000000e+00
1.679540e+00 3.862500e-01 0.000000e+00
1.732440e+00 3.582080e-01 0.000000e+00
1.732350e+00 3.862500e-01 0.000000e+00
1.732440e+00 3.582080e-01 0.000000e+00
1.732350e+00 3.862500e-01 0.000000e+00
1.785000e+00 3.584450e-01 0.000000e+00
1.785010e+00 3.862500e-01 0.000000e+00
1.785000e+00 3.584450e-01 0.000000e+00
1.785010e+00 3.862500e-01 0.000000e+00
1.837330e+00 3.586880e-01 0.000000e+00
1.837610e+00 3.862500e-01 0.000000e+00
1.837330e+00 3.586880e-01 0.000000e+00
1.837610e+00 3.862500e-01 0.000000e+00
1.889210e+00 3.589340e-01 0.000000e+00
1.890260e+00 3.862500e-01 0.000000e+00
1.889210e+00 3.589340e-01 0.000000e+00
1.890260e+00 3.862500e-01 0.000000e+00
1.940260e+00 3.590940e-01 0.000000e+00
1.943240e+00 3.862500e-01 0.000000e+00
1.940260e+00 3.590940e-01 0.000000e+00
1.943240e+00 3.862500e-01 0.000000e+00
1.989950e+00 3.574460e-01 0.000000e+00
1.994960e+00 3.849960e-01 0.000000e+00
1.989950e+00 3.574460e-01 0.000000e+00
1.994960e+00 3.849960e-01 0.000000e+00
2.037730e+00 3.497800e-01 0.000000e+00
2.045120e+00 3.764520e-01 0.000000e+00
2.037730e+00 3.497800e-01 0.000000e+00
2.045120e+00 3.764520e-01 0.000000e+00
2.083170e+00 3.352200e-01 0.000000e+00
2.093730e+00 3.605210e-01 0.000000e+00
2.083170e+00 3.352200e-01 0.000000e+00
2.093730e+00 3.605210e-01 0.000000e+00
2.125780e+00 3.143110e-01 0.000000e+00
2.139530e+00 3.377550e-01 0.000000e+00
2.125780e+00 3.143110e-01 0.000000e+00
2.139530e+00 3.377550e-01 0.000000e+00
2.164870e+00 2.876860e-01 0.000000e+00
2.181550e+00 3.088710e-01 0.000000e+00
2.164870e+00 2.876860e-01 0.000000e+00
2.181550e+00 3.088710e-01 0.000000e+00
2.199880e+00 2.559990e-01 0.000000e+00
2.219120e+00 2.746160e-01 0.000000e+00
2.199880e+00 2.559990e-01 0.000000e+00
2.219120e+00 2.746160e-01 0.000000e+00
2.230280e+00 2.199760e-01 0.000000e+00
2.251680e+00 2.357910e-01 0.000000e+00
2.230280e+00 2.199760e-01 0.000000e+00
2.251680e+00 2.357910e-01 0.000000e+00
2.255670e+00 1.803160e-01 0.000000e+00
2.278840e+00 1.931520e-01 0.000000e+00
2.255670e+00 1.803160e-01 0.000000e+00
2.278840e+00 1.931520e-01 0.000000e+00
2.275730e+00 1.377720e-01 0.000000e+00
2.300250e+00 1.475010e-01 0.000000e+00
2.275730e+00 1.377720e-01 0.000000e+00
2.300250e+00 1.475010e-01 0.000000e+00
2.290230e+00 9.304400e-02 0.000000e+00
2.315710e+00 9.957660e-02 0.000000e+00
2.290230e+00 9.304400e-02 0.000000e+00
2.315710e+00 9.957660e-02 0.000000e+00
2.298990e+00 4.688560e-02 0.000000e+00
2.325040e+00 5.016610e-02 0.000000e+00
2.298990e+00 4.688560e-02 0.000000e+00
2.325040e+00 5.016610e-02 0.000000e+00
2.301920e+00 -8.455410e-06 0.000000e+00
2.328160e+00 -8.551810e-06 0.000000e+00
</DataArray>
</Points>
<Cells>
<DataArray type="Int32" Name="connectivity" format="ascii">
0 1 3 2
4 5 7 6
8 9 11 10
12 13 15 14
16 17 19 18
20 21 23 22
24 25 27 26
28 29 31 30
32 33 35 34
36 37 39 38
40 41 43 42
44 45 47 46
48 49 51 50
52 53 55 54
56 57 59 58
60 61 63 62
64 65 67 66
68 69 71 70
72 73 75 74
76 77 79 78
80 81 83 82
84 85 87 86
88 89 91 90
92 93 95 94
96 97 99 98
100 101 103 102
104 105 107 106
108 109 111 110
112 113 115 114
116 117 119 118
120 121 123 122
124 125 127 126
128 129 131 130
132 133 135 134
136 137 139 138
140 141 143 142
144 145 147 146
148 149 151 150
152 153 155 154
156 157 159 158
160 161 163 162
164 165 167 166
168 169 171 170
172 173 175 174
176 177 179 178
180 181 183 182
184 185 187 186
188 189 191 190
</DataArray>
<DataArray type="Int32" Name="offsets" format="ascii">
4
8
12
16
20
24
28
32
36
40
44
48
52
56
60
64
68
72
76
80
84
88
92
96
100
104
108
112
116
120
124
128
132
136
140
144
148
152
156
160
164
168
172
176
180
184
188
192
</DataArray>
<DataArray type="UInt8" Name="types" format="ascii">
9
9
9
9
9
9
9
9
9
9
9
9
9
9
9
9
9
9
9
9
9
9
9
9
9
9
9
9
9
9
9
9
9
9
9
9
9
9
9
9
9
9
9
9
9
9
9
9
</DataArray>
</Cells>
<PointData>
<DataArray type="Float32" Name="V1" format="ascii">
1.955840e+01
1.224540e+01
1.956440e+01
1.225140e+01
1.956680e+01
1.225000e+01
1.958110e+01
1.226430e+01
1.958570e+01
1.226140e+01
1.961020e+01
1.228590e+01
1.961660e+01
1.228100e+01
1.965120e+01
1.231570e+01
1.965960e+01
1.230900e+01
1.970440e+01
1.235370e+01
1.971480e+01
1.234530e+01
1.976960e+01
1.240020e+01
1.978210e+01
1.238990e+01
1.984710e+01
1.245500e+01
1.986160e+01
1.244290e+01
1.993690e+01
1.251820e+01
1.995350e+01
1.250440e+01
2.003910e+01
1.259010e+01
2.005780e+01
1.257440e+01
2.015390e+01
1.267050e+01
2.017470e+01
1.265300e+01
2.028130e+01
1.275960e+01
2.030430e+01
1.274030e+01
2.042150e+01
1.285750e+01
2.044670e+01
1.283630e+01
2.057480e+01
1.296440e+01
2.060210e+01
1.294130e+01
2.074120e+01
1.308030e+01
2.077080e+01
1.305520e+01
2.092090e+01
1.320530e+01
2.095280e+01
1.317830e+01
2.111420e+01
1.333970e+01
2.114850e+01
1.331070e+01
2.132130e+01
1.348360e+01
2.135800e+01
1.345260e+01
2.154250e+01
1.363700e+01
2.158160e+01
1.360400e+01
2.177790e+01
1.380030e+01
2.181950e+01
1.376520e+01
2.202790e+01
1.397360e+01
2.207200e+01
1.393630e+01
2.229290e+01
1.415710e+01
2.233950e+01
1.411770e+01
2.257290e+01
1.435110e+01
2.262230e+01
1.430940e+01
2.286860e+01
1.455570e+01
2.292060e+01
1.451170e+01
2.318010e+01
1.477120e+01
2.323490e+01
1.472490e+01
2.350780e+01
1.499780e+01
2.356540e+01
1.494920e+01
2.385220e+01
1.523600e+01
2.391270e+01
1.518490e+01
2.421370e+01
1.548580e+01
2.427710e+01
1.543230e+01
2.459260e+01
1.574780e+01
2.465880e+01
1.569190e+01
2.498930e+01
1.602240e+01
2.505800e+01
1.596450e+01
2.540380e+01
1.631040e+01
2.547380e+01
1.625140e+01
2.583550e+01
1.661310e+01
2.590310e+01
1.655630e+01
2.628150e+01
1.693470e+01
2.633570e+01
1.688930e+01
2.673170e+01
1.728530e+01
2.674050e+01
1.727860e+01
2.715670e+01
1.769480e+01
2.702800e+01
1.780540e+01
2.747030e+01
1.824770e+01
2.696040e+01
1.868900e+01
2.742960e+01
1.915820e+01
2.625360e+01
2.016710e+01
2.657360e+01
2.048710e+01
2.551850e+01
2.138380e+01
2.599060e+01
2.185590e+01
2.558390e+01
2.220060e+01
2.604230e+01
2.265900e+01
2.594770e+01
2.273830e+01
2.638210e+01
2.317270e+01
2.639990e+01
2.315760e+01
2.680290e+01
2.356070e+01
2.685700e+01
2.351500e+01
2.722150e+01
2.387950e+01
2.728300e+01
2.382770e+01
2.760220e+01
2.414690e+01
2.765970e+01
2.409850e+01
2.792810e+01
2.436680e+01
2.797690e+01
2.432590e+01
2.819000e+01
2.453900e+01
2.822780e+01
2.450720e+01
2.838230e+01
2.466170e+01
2.840790e+01
2.464020e+01
2.850160e+01
2.473390e+01
2.851450e+01
2.472300e+01
2.854580e+01
2.475430e+01
</DataArray>
<DataArray type="Float32" Name="V2" format="ascii">
3.539470e-01
3.862500e-01
3.555540e-01
3.878340e-01
3.555540e-01
3.878340e-01
3.603670e-01
3.925810e-01
3.603670e-01
3.925810e-01
3.683770e-01
4.004800e-01
3.683770e-01
4.004800e-01
3.795650e-01
4.115130e-01
3.795650e-01
4.115130e-01
3.939020e-01
4.256530e-01
3.939020e-01
4.256530e-01
4.113550e-01
4.428650e-01
4.113550e-01
4.428650e-01
4.318820e-01
4.631090e-01
4.318820e-01
4.631090e-01
4.554330e-01
4.863350e-01
4.554330e-01
4.863350e-01
4.819520e-01
5.124890e-01
4.819520e-01
5.124890e-01
5.113750e-01
5.415050e-01
5.113750e-01
5.415050e-01
5.436290e-01
5.733150e-01
5.436290e-01
5.733150e-01
5.786360e-01
6.078400e-01
5.786360e-01
6.078400e-01
6.163110e-01
6.449960e-01
6.163110e-01
6.449960e-01
6.565610e-01
6.846930e-01
6.565610e-01
6.846930e-01
6.992880e-01
7.268310e-01
6.992880e-01
7.268310e-01
7.443840e-01
7.713060e-01
7.443840e-01
7.713060e-01
7.917390e-01
8.180090e-01
7.917390e-01
8.180090e-01
8.412330e-01
8.668220e-01
8.412330e-01
8.668220e-01
8.927420e-01
9.176220e-01
8.927420e-01
9.176220e-01
9.461350e-01
9.702790e-01
9.461350e-01
9.702790e-01
1.001280e+00
1.024660e+00
1.001280e+00
1.024660e+00
1.058030e+00
1.080630e+00
1.058030e+00
1.080630e+00
1.116240e+00
1.138040e+00
1.116240e+00
1.138040e+00
1.175760e+00
1.196730e+00
1.175760e+00
1.196730e+00
1.236430e+00
1.256560e+00
1.236430e+00
1.256560e+00
1.298100e+00
1.317370e+00
1.298100e+00
1.317370e+00
1.360590e+00
1.379000e+00
1.360590e+00
1.379000e+00
1.423750e+00
1.441260e+00
1.423750e+00
1.441260e+00
1.487380e+00
1.504010e+00
1.487380e+00
1.504010e+00
1.551330e+00
1.567060e+00
1.551330e+00
1.567060e+00
1.615410e+00
1.630240e+00
1.615410e+00
1.630240e+00
1.679440e+00
1.693390e+00
1.679440e+00
1.693390e+00
1.743200e+00
1.756310e+00
1.743200e+00
1.756310e+00
1.806490e+00
1.818930e+00
1.806490e+00
1.818930e+00
1.868950e+00
1.881180e+00
1.868950e+00
1.881180e+00
1.929990e+00
1.943130e+00
1.929990e+00
1.943130e+00
1.988310e+00
2.002710e+00
1.988310e+00
2.002710e+00
2.042020e+00
2.057590e+00
2.042020e+00
2.057590e+00
2.090780e+00
2.108230e+00
2.090780e+00
2.108230e+00
2.134700e+00
2.154040e+00
2.134700e+00
2.154040e+00
2.173640e+00
2.194700e+00
2.173640e+00
2.194700e+00
2.207550e+00
2.230060e+00
2.207550e+00
2.230060e+00
2.236320e+00
2.260020e+00
2.236320e+00
2.260020e+00
2.259910e+00
2.284550e+00
2.259910e+00
2.284550e+00
2.278280e+00
2.303630e+00
2.278280e+00
2.303630e+00
2.291410e+00
2.317260e+00
2.291410e+00
2.317260e+00
2.299290e+00
2.325430e+00
2.299290e+00
2.325430e+00
2.301920e+00
2.328160e+00
</DataArray>
<DataArray type="Float32" Name="V3" format="ascii">
0.000000e+00
0.000000e+00
4.311730e-02
4.205540e-02
4.311730e-02
4.205540e-02
8.606800e-02
8.394600e-02
8.606800e-02
8.394600e-02
1.286850e-01
1.255070e-01
1.286850e-01
1.255070e-01
1.708030e-01
1.665760e-01
1.708030e-01
1.665760e-01
2.122560e-01
2.069870e-01
2.122560e-01
2.069870e-01
2.528800e-01
2.465800e-01
2.528800e-01
2.465800e-01
2.925130e-01
2.851940e-01
2.925130e-01
2.851940e-01
3.309960e-01
3.226730e-01
3.309960e-01
3.226730e-01
3.681700e-01
3.588580e-01
3.681700e-01
3.588580e-01
4.038800e-01
3.935980e-01
4.038800e-01
3.935980e-01
4.379730e-01
4.267390e-01
4.379730e-01
4.267390e-01
4.703000e-01
4.581360e-01
4.703000e-01
4.581360e-01
5.007140e-01
4.876430e-01
5.007140e-01
4.876430e-01
5.290730e-01
5.151200e-01
5.290730e-01
5.151200e-01
5.552390e-01
5.404310e-01
5.552390e-01
5.404310e-01
5.790790e-01
5.634420e-01
5.790790e-01
5.634420e-01
6.004620e-01
5.840250e-01
6.004620e-01
5.840250e-01
6.192650e-01
6.020590e-01
6.192650e-01
6.020590e-01
6.353680e-01
6.174240e-01
6.353680e-01
6.174240e-01
6.486590e-01
6.300080e-01
6.486590e-01
6.300080e-01
6.590290e-01
6.397050e-01
6.590290e-01
6.397050e-01
6.663760e-01
6.464130e-01
6.663760e-01
6.464130e-01
6.706050e-01
6.500380e-01
6.706050e-01
6.500380e-01
6.716270e-01
6.504920e-01
6.716270e-01
6.504920e-01
6.693600e-01
6.476930e-01
6.693600e-01
6.476930e-01
6.637280e-01
6.415650e-01
6.637280e-01
6.415650e-01
6.546640e-01
6.320420e-01
6.546640e-01
6.320420e-01
6.421070e-01
6.190630e-01
6.421070e-01
6.190630e-01
6.260030e-01
6.025770e-01
6.260030e-01
6.025770e-01
6.063090e-01
5.825380e-01
6.063090e-01
5.825380e-01
5.829870e-01
5.589130e-01
5.829870e-01
5.589130e-01
5.559980e-01
5.316690e-01
5.559980e-01
5.316690e-01
5.253290e-01
5.008100e-01
5.253290e-01
5.008100e-01
4.909260e-01
4.663300e-01
4.909260e-01
4.663300e-01
4.527540e-01
4.283060e-01
4.527540e-01
4.283060e-01
4.107420e-01
3.867910e-01
4.107420e-01
3.867910e-01
3.664280e-01
3.424100e-01
3.664280e-01
3.424100e-01
3.237830e-01
3.009030e-01
3.237830e-01
3.009030e-01
2.839330e-01
2.627840e-01
2.839330e-01
2.627840e-01
2.465840e-01
2.274980e-01
2.465840e-01
2.274980e-01
2.114240e-01
1.945800e-01
2.114240e-01
1.945800e-01
1.780880e-01
1.635830e-01
1.780880e-01
1.635830e-01
1.462680e-01
1.341520e-01
1.462680e-01
1.341520e-01
1.156430e-01
1.059410e-01
1.156430e-01
1.059410e-01
8.595580e-02
7.867670e-02
8.595580e-02
7.867670e-02
5.693510e-02
5.208280e-02
5.693510e-02
5.208280e-02
2.836340e-02
2.593720e-02
2.836340e-02
2.593720e-02
0.000000e+00
0.000000e+00
</DataArray>
<DataArray type="Float32" Name="V4" format="ascii">
9.000000e-01
1.000000e+00
9.000000e-01
1.000000e+00
9.000000e-01
1.000000e+00
9.000000e-01
1.000000e+00
9.000000e-01
1.000000e+00
9.000000e-01
1.000000e+00
9.000000e-01
1.000000e+00
9.000000e-01
1.000000e+00
9.000000e-01
1.000000e+00
9.000000e-01
1.000000e+00
9.000000e-01
1.000000e+00
9.000000e-01
1.000000e+00
9.000000e-01
1.000000e+00
9.000000e-01
1.000000e+00
9.000000e-01
1.000000e+00
9.000000e-01
1.000000e+00
9.000000e-01
1.000000e+00
9.000000e-01
1.000000e+00
9.000000e-01
1.000000e+00
9.000000e-01
1.000000e+00
9.000000e-01
1.000000e+00
9.000000e-01
1.000000e+00
9.000000e-01
1.000000e+00
9.000000e-01
1.000000e+00
9.000000e-01
1.000000e+00
9.000000e-01
1.000000e+00
9.000000e-01
1.000000e+00
9.000000e-01
1.000000e+00
9.000000e-01
1.000000e+00
9.000000e-01
1.000000e+00
9.000000e-01
1.000000e+00
9.000000e-01
1.000000e+00
9.000000e-01
1.000000e+00
9.000000e-01
1.000000e+00
9.000000e-01
1.000000e+00
9.000000e-01
1.000000e+00
9.000000e-01
1.000000e+00
9.000000e-01
1.000000e+00
9.000000e-01
1.000000e+00
9.000000e-01
1.000000e+00
9.000000e-01
1.000000e+00
9.000000e-01
1.000000e+00
9.000000e-01
1.000000e+00
9.000000e-01
1.000000e+00
9.000000e-01
1.000000e+00
9.000000e-01
1.000000e+00
9.000000e-01
1.000000e+00
9.000000e-01
1.000000e+00
9.000000e-01
1.000000e+00
9.000000e-01
1.000000e+00
9.000000e-01
1.000000e+00
9.000000e-01
1.000000e+00
9.000000e-01
1.000000e+00
9.000000e-01
1.000000e+00
9.000000e-01
1.000000e+00
9.000000e-01
1.000000e+00
9.000000e-01
1.000000e+00
9.000000e-01
1.000000e+00
9.000000e-01
1.000000e+00
9.000000e-01
1.000000e+00
9.000000e-01
1.000000e+00
9.000000e-01
1.000000e+00
9.000000e-01
1.000000e+00
9.000000e-01
1.000000e+00
9.000000e-01
1.000000e+00
9.000000e-01
1.000000e+00
9.000000e-01
1.000000e+00
9.000000e-01
1.000000e+00
9.000000e-01
1.000000e+00
9.000000e-01
1.000000e+00
9.000000e-01
1.000000e+00
9.000000e-01
1.000000e+00
9.000000e-01
1.000000e+00
9.000000e-01
1.000000e+00
9.000000e-01
1.000000e+00
9.000000e-01
1.000000e+00
9.000000e-01
1.000000e+00
9.000000e-01
1.000000e+00
9.000000e-01
1.000000e+00
9.000000e-01
1.000000e+00
9.000000e-01
1.000000e+00
9.000000e-01
1.000000e+00
9.000000e-01
1.000000e+00
9.000000e-01
1.000000e+00
9.000000e-01
1.000000e+00
9.000000e-01
1.000000e+00
9.000000e-01
1.000000e+00
9.000000e-01
1.000000e+00
9.000000e-01
1.000000e+00
9.000000e-01
1.000000e+00
9.000000e-01
1.000000e+00
9.000000e-01
1.000000e+00
9.000000e-01
1.000000e+00
9.000000e-01
1.000000e+00
9.000000e-01
1.000000e+00
9.000000e-01
1.000000e+00
</DataArray>
<DataArray type="Float32" Name="V5" format="ascii">
0.000000e+00
0.000000e+00
3.272490e-02
3.272490e-02
3.272490e-02
3.272490e-02
6.544980e-02
6.544980e-02
6.544980e-02
6.544980e-02
9.817480e-02
9.817480e-02
9.817480e-02
9.817480e-02
1.309000e-01
1.309000e-01
1.309000e-01
1.309000e-01
1.636250e-01
1.636250e-01
1.636250e-01
1.636250e-01
1.963500e-01
1.963500e-01
1.963500e-01
1.963500e-01
2.290740e-01
2.290740e-01
2.290740e-01
2.290740e-01
2.617990e-01
2.617990e-01
2.617990e-01
2.617990e-01
2.945240e-01
2.945240e-01
2.945240e-01
2.945240e-01
3.272490e-01
3.272490e-01
3.272490e-01
3.272490e-01
3.599740e-01
3.599740e-01
3.599740e-01
3.599740e-01
3.926990e-01
3.926990e-01
3.926990e-01
3.926990e-01
4.254240e-01
4.254240e-01
4.254240e-01
4.254240e-01
4.581490e-01
4.581490e-01
4.581490e-01
4.581490e-01
4.908740e-01
4.908740e-01
4.908740e-01
4.908740e-01
5.235990e-01
5.235990e-01
5.235990e-01
5.235990e-01
5.563240e-01
5.563240e-01
5.563240e-01
5.563240e-01
5.890490e-01
5.890490e-01
5.890490e-01
5.890490e-01
6.217740e-01
6.217740e-01
6.217740e-01
6.217740e-01
6.544980e-01
6.544980e-01
6.544980e-01
6.544980e-01
6.872230e-01
6.872230e-01
6.872230e-01
6.872230e-01
7.199480e-01
7.199480e-01
7.199480e-01
7.199480e-01
7.526730e-01
7.526730e-01
7.526730e-01
7.526730e-01
7.853980e-01
7.853980e-01
7.853980e-01
7.853980e-01
8.181230e-01
8.181230e-01
8.181230e-01
8.181230e-01
8.508480e-01
8.508480e-01
8.508480e-01
8.508480e-01
8.835730e-01
8.835730e-01
8.835730e-01
8.835730e-01
9.162980e-01
9.162980e-01
9.162980e-01
9.162980e-01
9.490230e-01
9.490230e-01
9.490230e-01
9.490230e-01
9.817480e-01
9.817480e-01
9.817480e-01
9.817480e-01
1.014470e+00
1.014470e+00
1.014470e+00
1.014470e+00
1.047200e+00
1.047200e+00
1.047200e+00
1.047200e+00
1.079920e+00
1.079920e+00
1.079920e+00
1.079920e+00
1.112650e+00
1.112650e+00
1.112650e+00
1.112650e+00
1.145370e+00
1.145370e+00
1.145370e+00
1.145370e+00
1.178100e+00
1.178100e+00
1.178100e+00
1.178100e+00
1.210820e+00
1.210820e+00
1.210820e+00
1.210820e+00
1.243550e+00
1.243550e+00
1.243550e+00
1.243550e+00
1.276270e+00
1.276270e+00
1.276270e+00
1.276270e+00
1.309000e+00
1.309000e+00
1.309000e+00
1.309000e+00
1.341720e+00
1.341720e+00
1.341720e+00
1.341720e+00
1.374450e+00
1.374450e+00
1.374450e+00
1.374450e+00
1.407170e+00
1.407170e+00
1.407170e+00
1.407170e+00
1.439900e+00
1.439900e+00
1.439900e+00
1.439900e+00
1.472620e+00
1.472620e+00
1.472620e+00
1.472620e+00
1.505350e+00
1.505350e+00
1.505350e+00
1.505350e+00
1.538070e+00
1.538070e+00
1.538070e+00
1.538070e+00
1.570800e+00
1.570800e+00
</DataArray>
</PointData>
</Piece></UnstructuredGrid>
</VTKFile>
