<?xml version="1.0"?>
<VTKFile type="UnstructuredGrid" version="0.1" byte_order="LittleEndian" compressor="vtkZLibDataCompressor">
<UnstructuredGrid>
<Piece NumberOfPoints="192" NumberOfCells="48">
<Points>
<DataArray type="Float32" NumberOfComponents="3" format="ascii">
0.000000e+00 4.330210e-01 0.000000e+00
0.000000e+00 4.950000e-01 0.000000e+00
3.951840e-02 4.330320e-01 0.000000e+00
3.950210e-02 4.950000e-01 0.000000e+00
3.951840e-02 4.330320e-01 0.000000e+00
3.950210e-02 4.950000e-01 0.000000e+00
7.903670e-02 4.330640e-01 0.000000e+00
7.900390e-02 4.950000e-01 0.000000e+00
7.903670e-02 4.330640e-01 0.000000e+00
7.900390e-02 4.950000e-01 0.000000e+00
1.185550e-01 4.331180e-01 0.000000e+00
1.185050e-01 4.950000e-01 0.000000e+00
1.185550e-01 4.331180e-01 0.000000e+00
1.185050e-01 4.950000e-01 0.000000e+00
1.580720e-01 4.331940e-01 0.000000e+00
1.580060e-01 4.950000e-01 0.000000e+00
1.580720e-01 4.331940e-01 0.000000e+00
1.580060e-01 4.950000e-01 0.000000e+00
1.975880e-01 4.332910e-01 0.000000e+00
1.975060e-01 4.950000e-01 0.000000e+00
1.975880e-01 4.332910e-01 0.000000e+00
1.975060e-01 4.950000e-01 0.000000e+00
2.371020e-01 4.334090e-01 0.000000e+00
2.370050e-01 4.950000e-01 0.000000e+00
2.371020e-01 4.334090e-01 0.000000e+00
2.370050e-01 4.950000e-01 0.000000e+00
2.766140e-01 4.335490e-01 0.000000e+00
2.765010e-01 4.950000e-01 0.000000e+00
2.766140e-01 4.335490e-01 0.000000e+00
2.765010e-01 4.950000e-01 0.000000e+00
3.161250e-01 4.337100e-01 0.000000e+00
3.159960e-01 4.950000e-01 0.000000e+00
3.161250e-01 4.337100e-01 0.000000e+00
3.159960e-01 4.950000e-01 0.000000e+00
3.556330e-01 4.338920e-01 0.000000e+00
3.554890e-01 4.950000e-01 0.000000e+00
3.556330e-01 4.338920e-01 0.000000e+00
3.554890e-01 4.950000e-01 0.000000e+00
3.951390e-01 4.340940e-01 0.000000e+00
3.949790e-01 4.950000e-01 0.000000e+00
3.951390e-01 4.340940e-01 0.000000e+00
3.949790e-01 4.950000e-01 0.000000e+00
4.346420e-01 4.343180e-01 0.000000e+00
4.344670e-01 4.950000e-01 0.000000e+00
4.346420e-01 4.343180e-01 0.000000e+00
4.344670e-01 4.950000e-01 0.000000e+00
4.741410e-01 4.345620e-01 0.000000e+00
4.739510e-01 4.950000e-01 0.000000e+00
4.741410e-01 4.345620e-01 0.000000e+00
4.739510e-01 4.950000e-01 0.000000e+00
5.136360e-01 4.348260e-01 0.000000e+00
5.134310e-01 4.950000e-01 0.000000e+00
5.136360e-01 4.348260e-01 0.000000e+00
5.134310e-01 4.950000e-01 0.000000e+00
5.531260e-01 4.351100e-01 0.000000e+00
5.529070e-01 4.950000e-01 0.000000e+00
5.531260e-01 4.351100e-01 0.000000e+00
5.529070e-01 4.950000e-01 0.000000e+00
5.926110e-01 4.354140e-01 0.000000e+00
5.923780e-01 4.950000e-01 0.000000e+00
5.926110e-01 4.354140e-01 0.000000e+00
5.923780e-01 4.950000e-01 0.000000e+00
6.320910e-01 4.357370e-01 0.000000e+00
6.318440e-01 4.950000e-01 0.000000e+00
6.320910e-01 4.357370e-01 0.000000e+00
6.318440e-01 4.950000e-01 0.000000e+00
6.715640e-01 4.360790e-01 0.000000e+00
6.713040e-01 4.950000e-01 0.000000e+00
6.715640e-01 4.360790e-01 0.000000e+00
6.713040e-01 4.950000e-01 0.000000e+00
7.110290e-01 4.364410e-01 0.000000e+00
7.107560e-01 4.950000e-01 0.000000e+00
7.110290e-01 4.364410e-01 0.000000e+00
7.107560e-01 4.950000e-01 0.000000e+00
7.504870e-01 4.368200e-01 0.000000e+00
7.502010e-01 4.950000e-01 0.000000e+00
7.504870e-01 4.368200e-01 0.000000e+00
7.502010e-01 4.950000e-01 0.000000e+00
7.899340e-01 4.372180e-01 0.000000e+00
7.896360e-01 4.950000e-01 0.000000e+00
7.899340e-01 4.372180e-01 0.000000e+00
7.896360e-01 4.950000e-01 0.000000e+00
8.293720e-01 4.376340e-01 0.000000e+00
8.290620e-01 4.950000e-01 0.000000e+00
8.293720e-01 4.376340e-01 0.000000e+00
8.290620e-01 4.950000e-01 0.000000e+00
8.687990e-01 4.380670e-01 0.000000e+00
8.684780e-01 4.950000e-01 0.000000e+00
8.687990e-01 4.380670e-01 0.000000e+00
8.684780e-01 4.950000e-01 0.000000e+00
9.082120e-01 4.385190e-01 0.000000e+00
9.078840e-01 4.950000e-01 0.000000e+00
9.082120e-01 4.385190e-01 0.000000e+00
9.078840e-01 4.950000e-01 0.000000e+00
9.476090e-01 4.389900e-01 0.000000e+00
9.472850e-01 4.950000e-01 0.000000e+00
9.476090e-01 4.389900e-01 0.000000e+00
9.472850e-01 4.950000e-01 0.000000e+00
9.869770e-01 4.394830e-01 0.000000e+00
9.866950e-01 4.950000e-01 0.000000e+00
9.869770e-01 4.394830e-01 0.000000e+00
9.866950e-01 4.950000e-01 0.000000e+00
1.026290e+00 4.400020e-01 0.000000e+00
1.026150e+00 4.950000e-01 0.000000e+00
1.026290e+00 4.400020e-01 0.000000e+00
1.026150e+00 4.950000e-01 0.000000e+00
1.065460e+00 4.405400e-01 0.000000e+00
1.065730e+00 4.950000e-01 0.000000e+00
1.065460e+00 4.405400e-01 0.000000e+00
1.065730e+00 4.950000e-01 0.000000e+00
1.104310e+00 4.410360e-01 0.000000e+00
1.105570e+00 4.950000e-01 0.000000e+00
1.104310e+00 4.410360e-01 0.000000e+00
1.105570e+00 4.950000e-01 0.000000e+00
1.142430e+00 4.412300e-01 0.000000e+00
1.145770e+00 4.950000e-01 0.000000e+00
1.142430e+00 4.412300e-01 0.000000e+00
1.145770e+00 4.950000e-01 0.000000e+00
1.179500e+00 4.403630e-01 0.000000e+00
1.185850e+00 4.948780e-01 0.000000e+00
1.179500e+00 4.403630e-01 0.000000e+00
1.185850e+00 4.948780e-01 0.000000e+00
1.215480e+00 4.369590e-01 0.000000e+00
1.225090e+00 4.908260e-01 0.000000e+00
1.215480e+00 4.369590e-01 0.000000e+00
1.225090e+00 4.908260e-01 0.000000e+00
1.250210e+00 4.302930e-01 0.000000e+00
1.264100e+00 4.826300e-01 0.000000e+00
1.250210e+00 4.302930e-01 0.000000e+00
1.264100e+00 4.826300e-01 0.000000e+00
1.283880e+00 4.202360e-01 0.000000e+00
1.302290e+00 4.705600e-01 0.000000e+00
1.283880e+00 4.202360e-01 0.000000e+00
1.302290e+00 4.705600e-01 0.000000e+00
1.316380e+00 4.069050e-01 0.000000e+00
1.339170e+00 4.548110e-01 0.000000e+00
1.316380e+00 4.069050e-01 0.000000e+00
1.339170e+00 4.548110e-01 0.000000e+00
1.347490e+00 3.904970e-01 0.000000e+00
1.374350e+00 4.356620e-01 0.000000e+00
1.347490e+00 3.904970e-01 0.000000e+00
1.374350e+00 4.356620e-01 0.000000e+00
1.377040e+00 3.712190e-01 0.000000e+00
1.407590e+00 4.133930e-01 0.000000e+00
1.377040e+00 3.712190e-01 0.000000e+00
1.407590e+00 4.133930e-01 0.000000e+00
1.404800e+00 3.493110e-01 0.000000e+00
1.438650e+00 3.883130e-01 0.000000e+00
1.404800e+00 3.493110e-01 0.000000e+00
1.438650e+00 3.883130e-01 0.000000e+00
1.430640e+00 3.249960e-01 0.000000e+00
1.467400e+00 3.606890e-01 0.000000e+00
1.430640e+00 3.249960e-01 0.000000e+00
1.467400e+00 3.606890e-01 0.000000e+00
1.454370e+00 2.985260e-01 0.000000e+00
1.493700e+00 3.308110e-01 0.000000e+00
1.454370e+00 2.985260e-01 0.000000e+00
1.493700e+00 3.308110e-01 0.000000e+00
1.475900e+00 2.701170e-01 0.000000e+00
1.517460e+00 2.989220e-01 0.000000e+00
1.475900e+00 2.701170e-01 0.000000e+00
1.517460e+00 2.989220e-01 0.000000e+00
1.495120e+00 2.400150e-01 0.000000e+00
1.538580e+00 2.652910e-01 0.000000e+00
1.495120e+00 2.400150e-01 0.000000e+00
1.538580e+00 2.652910e-01 0.000000e+00
1.511930e+00 2.084270e-01 0.000000e+00
1.557010e+00 2.301360e-01 0.000000e+00
1.511930e+00 2.084270e-01 0.000000e+00
1.557010e+00 2.301360e-01 0.000000e+00
1.526260e+00 1.755930e-01 0.000000e+00
1.572680e+00 1.937110e-01 0.000000e+00
1.526260e+00 1.755930e-01 0.000000e+00
1.572680e+00 1.937110e-01 0.000000e+00
1.538070e+00 1.417080e-01 0.000000e+00
1.585570e+00 1.562170e-01 0.000000e+00
1.538070e+00 1.417080e-01 0.000000e+00
1.585570e+00 1.562170e-01 0.000000e+00
1.547290e+00 1.070050e-01 0.000000e+00
1.595620e+00 1.178950e-01 0.000000e+00
1.547290e+00 1.070050e-01 0.000000e+00
1.595620e+00 1.178950e-01 0.000000e+00
1.553910e+00 7.167360e-02 0.000000e+00
1.602810e+00 7.893670e-02 0.000000e+00
1.553910e+00 7.167360e-02 0.000000e+00
1.602810e+00 7.893670e-02 0.000000e+00
1.557890e+00 3.594200e-02 0.000000e+00
1.607140e+00 3.957490e-02 0.000000e+00
1.557890e+00 3.594200e-02 0.000000e+00
1.607140e+00 3.957490e-02 0.000000e+00
1.559210e+00 -5.727320e-06 0.000000e+00
1.608580e+00 -5.908650e-06 0.000000e+00
</DataArray>
</Points>
<Cells>
<DataArray type="Int32" Name="connectivity" format="ascii">
0 1 3 2
4 5 7 6
8 9 11 10
12 13 15 14
16 17 19 18
20 21 23 22
24 25 27 26
28 29 31 30
32 33 35 34
36 37 39 38
40 41 43 42
44 45 47 46
48 49 51 50
52 53 55 54
56 57 59 58
60 61 63 62
64 65 67 66
68 69 71 70
72 73 75 74
76 77 79 78
80 81 83 82
84 85 87 86
88 89 91 90
92 93 95 94
96 97 99 98
100 101 103 102
104 105 107 106
108 109 111 110
112 113 115 114
116 117 119 118
120 121 123 122
124 125 127 126
128 129 131 130
132 133 135 134
136 137 139 138
140 141 143 142
144 145 147 146
148 149 151 150
152 153 155 154
156 157 159 158
160 161 163 162
164 165 167 166
168 169 171 170
172 173 175 174
176 177 179 178
180 181 183 182
184 185 187 186
188 189 191 190
</DataArray>
<DataArray type="Int32" Name="offsets" format="ascii">
4
8
12
16
20
24
28
32
36
40
44
48
52
56
60
64
68
72
76
80
84
88
92
96
100
104
108
112
116
120
124
128
132
136
140
144
148
152
156
160
164
168
172
176
180
184
188
192
</DataArray>
<DataArray type="UInt8" Name="types" format="ascii">
9
9
9
9
9
9
9
9
9
9
9
9
9
9
9
9
9
9
9
9
9
9
9
9
9
9
9
9
9
9
9
9
9
9
9
9
9
9
9
9
9
9
9
9
9
9
9
9
</DataArray>
</Cells>
<PointData>
<DataArray type="Float32" Name="V1" format="ascii">
4.946200e+00
2.237770e+00
4.948830e+00
2.240410e+00
4.949550e+00
2.240070e+00
4.955900e+00
2.246420e+00
4.957270e+00
2.245630e+00
4.968170e+00
2.256530e+00
4.970030e+00
2.255140e+00
4.985450e+00
2.270560e+00
4.987850e+00
2.268610e+00
5.007780e+00
2.288550e+00
5.010740e+00
2.286040e+00
5.035210e+00
2.310520e+00
5.038740e+00
2.307460e+00
5.067780e+00
2.336500e+00
5.071900e+00
2.332880e+00
5.105550e+00
2.366530e+00
5.110280e+00
2.362340e+00
5.148600e+00
2.400660e+00
5.153950e+00
2.395880e+00
5.196990e+00
2.438920e+00
5.202980e+00
2.433550e+00
5.250810e+00
2.481380e+00
5.257480e+00
2.475400e+00
5.310170e+00
2.528090e+00
5.317520e+00
2.521480e+00
5.375160e+00
2.579120e+00
5.383220e+00
2.571860e+00
5.445910e+00
2.634550e+00
5.454720e+00
2.626610e+00
5.522550e+00
2.694440e+00
5.532120e+00
2.685810e+00
5.605220e+00
2.758900e+00
5.615590e+00
2.749540e+00
5.694070e+00
2.828010e+00
5.705290e+00
2.817900e+00
5.789280e+00
2.901890e+00
5.801370e+00
2.890980e+00
5.891030e+00
2.980630e+00
5.904040e+00
2.968890e+00
5.999510e+00
3.064360e+00
6.013500e+00
3.051750e+00
6.114940e+00
3.153190e+00
6.129930e+00
3.139700e+00
6.237500e+00
3.247270e+00
6.253390e+00
3.232980e+00
6.367230e+00
3.346820e+00
6.383450e+00
3.332240e+00
6.503630e+00
3.452420e+00
6.518150e+00
3.439390e+00
6.644640e+00
3.565890e+00
6.651100e+00
3.560030e+00
6.783880e+00
3.692800e+00
6.764700e+00
3.709560e+00
6.904520e+00
3.849380e+00
6.816330e+00
3.926740e+00
6.968400e+00
4.078820e+00
6.719630e+00
4.296690e+00
6.906110e+00
4.483170e+00
6.360350e+00
4.967870e+00
6.637530e+00
5.245040e+00
6.039920e+00
5.806580e+00
6.230470e+00
5.997130e+00
5.975480e+00
6.210030e+00
6.139440e+00
6.373980e+00
6.044810e+00
6.458530e+00
6.207810e+00
6.621530e+00
6.183700e+00
6.643440e+00
6.343960e+00
6.803700e+00
6.352110e+00
6.796610e+00
6.507260e+00
6.951770e+00
6.529470e+00
6.931960e+00
6.677800e+00
7.080290e+00
6.705390e+00
7.055690e+00
6.845400e+00
7.195700e+00
6.874100e+00
7.170050e+00
7.004690e+00
7.300640e+00
7.032510e+00
7.275840e+00
7.152690e+00
7.396030e+00
7.178560e+00
7.372940e+00
7.287650e+00
7.482030e+00
7.311110e+00
7.461150e+00
7.408460e+00
7.558500e+00
7.429200e+00
7.540010e+00
7.514380e+00
7.625190e+00
7.532310e+00
7.609260e+00
7.604910e+00
7.681860e+00
7.619900e+00
7.668510e+00
7.679660e+00
7.728280e+00
7.691700e+00
7.717590e+00
7.738390e+00
7.764270e+00
7.747430e+00
7.756230e+00
7.780880e+00
7.789690e+00
7.786920e+00
7.784330e+00
7.807040e+00
7.804450e+00
7.810060e+00
7.801770e+00
7.816770e+00
7.808480e+00
</DataArray>
<DataArray type="Float32" Name="V2" format="ascii">
4.330210e-01
4.950000e-01
4.340930e-01
4.960270e-01
4.340930e-01
4.960270e-01
4.373060e-01
4.991070e-01
4.373060e-01
4.991070e-01
4.426530e-01
5.042320e-01
4.426530e-01
5.042320e-01
4.501200e-01
5.113890e-01
4.501200e-01
5.113890e-01
4.596900e-01
5.205610e-01
4.596900e-01
5.205610e-01
4.713380e-01
5.317260e-01
4.713380e-01
5.317260e-01
4.850360e-01
5.448560e-01
4.850360e-01
5.448560e-01
5.007500e-01
5.599190e-01
5.007500e-01
5.599190e-01
5.184430e-01
5.768780e-01
5.184430e-01
5.768780e-01
5.380700e-01
5.956920e-01
5.380700e-01
5.956920e-01
5.595830e-01
6.163140e-01
5.595830e-01
6.163140e-01
5.829280e-01
6.386930e-01
5.829280e-01
6.386930e-01
6.080480e-01
6.627740e-01
6.080480e-01
6.627740e-01
6.348800e-01
6.884970e-01
6.348800e-01
6.884970e-01
6.633560e-01
7.157960e-01
6.633560e-01
7.157960e-01
6.934050e-01
7.446050e-01
6.934050e-01
7.446050e-01
7.249510e-01
7.748490e-01
7.249510e-01
7.748490e-01
7.579140e-01
8.064530e-01
7.579140e-01
8.064530e-01
7.922100e-01
8.393340e-01
7.922100e-01
8.393340e-01
8.277490e-01
8.734090e-01
8.277490e-01
8.734090e-01
8.644430e-01
9.085910e-01
8.644430e-01
9.085910e-01
9.021950e-01
9.447880e-01
9.021950e-01
9.447880e-01
9.409060e-01
9.819050e-01
9.409060e-01
9.819050e-01
9.804730e-01
1.019850e+00
9.804730e-01
1.019850e+00
1.020790e+00
1.058530e+00
1.020790e+00
1.058530e+00
1.061720e+00
1.097880e+00
1.061720e+00
1.097880e+00
1.103090e+00
1.137840e+00
1.103090e+00
1.137840e+00
1.144590e+00
1.178440e+00
1.144590e+00
1.178440e+00
1.185630e+00
1.219670e+00
1.185630e+00
1.219670e+00
1.225370e+00
1.260940e+00
1.225370e+00
1.260940e+00
1.262930e+00
1.299540e+00
1.262930e+00
1.299540e+00
1.297860e+00
1.336060e+00
1.297860e+00
1.336060e+00
1.330380e+00
1.370340e+00
1.330380e+00
1.370340e+00
1.360590e+00
1.402230e+00
1.360590e+00
1.402230e+00
1.388540e+00
1.431650e+00
1.388540e+00
1.431650e+00
1.414280e+00
1.458640e+00
1.414280e+00
1.458640e+00
1.437810e+00
1.483220e+00
1.437810e+00
1.483220e+00
1.459180e+00
1.505470e+00
1.459180e+00
1.505470e+00
1.478400e+00
1.525410e+00
1.478400e+00
1.525410e+00
1.495530e+00
1.543120e+00
1.495530e+00
1.543120e+00
1.510560e+00
1.558630e+00
1.510560e+00
1.558630e+00
1.523540e+00
1.571990e+00
1.523540e+00
1.571990e+00
1.534480e+00
1.583230e+00
1.534480e+00
1.583230e+00
1.543410e+00
1.592390e+00
1.543410e+00
1.592390e+00
1.550330e+00
1.599490e+00
1.550330e+00
1.599490e+00
1.555270e+00
1.604540e+00
1.555270e+00
1.604540e+00
1.558230e+00
1.607570e+00
1.558230e+00
1.607570e+00
1.559210e+00
1.608580e+00
</DataArray>
<DataArray type="Float32" Name="V3" format="ascii">
0.000000e+00
0.000000e+00
2.532890e-02
2.328500e-02
2.532890e-02
2.328500e-02
5.054370e-02
4.646030e-02
5.054370e-02
4.646030e-02
7.553060e-02
6.941630e-02
7.553060e-02
6.941630e-02
1.001760e-01
9.204410e-02
1.001760e-01
9.204410e-02
1.243670e-01
1.142350e-01
1.243670e-01
1.142350e-01
1.479920e-01
1.358810e-01
1.479920e-01
1.358810e-01
1.709400e-01
1.568750e-01
1.709400e-01
1.568750e-01
1.931010e-01
1.771130e-01
1.931010e-01
1.771130e-01
2.143680e-01
1.964910e-01
2.143680e-01
1.964910e-01
2.346340e-01
2.149050e-01
2.346340e-01
2.149050e-01
2.537950e-01
2.322560e-01
2.537950e-01
2.322560e-01
2.717500e-01
2.484450e-01
2.717500e-01
2.484450e-01
2.883970e-01
2.633760e-01
2.883970e-01
2.633760e-01
3.036400e-01
2.769540e-01
3.036400e-01
2.769540e-01
3.173840e-01
2.890900e-01
3.173840e-01
2.890900e-01
3.295380e-01
2.996930e-01
3.295380e-01
2.996930e-01
3.400140e-01
3.086790e-01
3.400140e-01
3.086790e-01
3.487250e-01
3.159650e-01
3.487250e-01
3.159650e-01
3.555920e-01
3.214710e-01
3.555920e-01
3.214710e-01
3.605350e-01
3.251230e-01
3.605350e-01
3.251230e-01
3.634810e-01
3.268490e-01
3.634810e-01
3.268490e-01
3.643600e-01
3.265800e-01
3.643600e-01
3.265800e-01
3.631040e-01
3.242540e-01
3.631040e-01
3.242540e-01
3.596480e-01
3.198140e-01
3.596480e-01
3.198140e-01
3.539270e-01
3.132140e-01
3.539270e-01
3.132140e-01
3.458680e-01
3.044270e-01
3.458680e-01
3.044270e-01
3.353820e-01
2.934510e-01
3.353820e-01
2.934510e-01
3.223640e-01
2.803180e-01
3.223640e-01
2.803180e-01
3.067900e-01
2.650290e-01
3.067900e-01
2.650290e-01
2.891460e-01
2.473450e-01
2.891460e-01
2.473450e-01
2.707910e-01
2.301230e-01
2.707910e-01
2.301230e-01
2.524590e-01
2.140780e-01
2.524590e-01
2.140780e-01
2.346050e-01
1.989030e-01
2.346050e-01
1.989030e-01
2.172740e-01
1.843900e-01
2.172740e-01
1.843900e-01
2.004330e-01
1.703800e-01
2.004330e-01
1.703800e-01
1.840050e-01
1.567310e-01
1.840050e-01
1.567310e-01
1.679230e-01
1.433440e-01
1.679230e-01
1.433440e-01
1.521090e-01
1.301290e-01
1.521090e-01
1.301290e-01
1.365130e-01
1.170350e-01
1.365130e-01
1.170350e-01
1.210750e-01
1.040060e-01
1.210750e-01
1.040060e-01
1.057630e-01
9.101740e-02
1.057630e-01
9.101740e-02
9.053540e-02
7.803860e-02
9.053540e-02
7.803860e-02
7.537650e-02
6.506230e-02
7.537650e-02
6.506230e-02
6.025780e-02
5.207210e-02
6.025780e-02
5.207210e-02
4.517390e-02
3.907250e-02
4.517390e-02
3.907250e-02
3.010490e-02
2.605570e-02
3.010490e-02
2.605570e-02
1.505210e-02
1.303260e-02
1.505210e-02
1.303260e-02
0.000000e+00
0.000000e+00
</DataArray>
<DataArray type="Float32" Name="V4" format="ascii">
9.000000e-01
1.000000e+00
9.000000e-01
1.000000e+00
9.000000e-01
1.000000e+00
9.000000e-01
1.000000e+00
9.000000e-01
1.000000e+00
9.000000e-01
1.000000e+00
9.000000e-01
1.000000e+00
9.000000e-01
1.000000e+00
9.000000e-01
1.000000e+00
9.000000e-01
1.000000e+00
9.000000e-01
1.000000e+00
9.000000e-01
1.000000e+00
9.000000e-01
1.000000e+00
9.000000e-01
1.000000e+00
9.000000e-01
1.000000e+00
9.000000e-01
1.000000e+00
9.000000e-01
1.000000e+00
9.000000e-01
1.000000e+00
9.000000e-01
1.000000e+00
9.000000e-01
1.000000e+00
9.000000e-01
1.000000e+00
9.000000e-01
1.000000e+00
9.000000e-01
1.000000e+00
9.000000e-01
1.000000e+00
9.000000e-01
1.000000e+00
9.000000e-01
1.000000e+00
9.000000e-01
1.000000e+00
9.000000e-01
1.000000e+00
9.000000e-01
1.000000e+00
9.000000e-01
1.000000e+00
9.000000e-01
1.000000e+00
9.000000e-01
1.000000e+00
9.000000e-01
1.000000e+00
9.000000e-01
1.000000e+00
9.000000e-01
1.000000e+00
9.000000e-01
1.000000e+00
9.000000e-01
1.000000e+00
9.000000e-01
1.000000e+00
9.000000e-01
1.000000e+00
9.000000e-01
1.000000e+00
9.000000e-01
1.000000e+00
9.000000e-01
1.000000e+00
9.000000e-01
1.000000e+00
9.000000e-01
1.000000e+00
9.000000e-01
1.000000e+00
9.000000e-01
1.000000e+00
9.000000e-01
1.000000e+00
9.000000e-01
1.000000e+00
9.000000e-01
1.000000e+00
9.000000e-01
1.000000e+00
9.000000e-01
1.000000e+00
9.000000e-01
1.000000e+00
9.000000e-01
1.000000e+00
9.000000e-01
1.000000e+00
9.000000e-01
1.000000e+00
9.000000e-01
1.000000e+00
9.000000e-01
1.000000e+00
9.000000e-01
1.000000e+00
9.000000e-01
1.000000e+00
9.000000e-01
1.000000e+00
9.000000e-01
1.000000e+00
9.000000e-01
1.000000e+00
9.000000e-01
1.000000e+00
9.000000e-01
1.000000e+00
9.000000e-01
1.000000e+00
9.000000e-01
1.000000e+00
9.000000e-01
1.000000e+00
9.000000e-01
1.000000e+00
9.000000e-01
1.000000e+00
9.000000e-01
1.000000e+00
9.000000e-01
1.000000e+00
9.000000e-01
1.000000e+00
9.000000e-01
1.000000e+00
9.000000e-01
1.000000e+00
9.000000e-01
1.000000e+00
9.000000e-01
1.000000e+00
9.000000e-01
1.000000e+00
9.000000e-01
1.000000e+00
9.000000e-01
1.000000e+00
9.000000e-01
1.000000e+00
9.000000e-01
1.000000e+00
9.000000e-01
1.000000e+00
9.000000e-01
1.000000e+00
9.000000e-01
1.000000e+00
9.000000e-01
1.000000e+00
9.000000e-01
1.000000e+00
9.000000e-01
1.000000e+00
9.000000e-01
1.000000e+00
9.000000e-01
1.000000e+00
9.000000e-01
1.000000e+00
9.000000e-01
1.000000e+00
9.000000e-01
1.000000e+00
9.000000e-01
1.000000e+00
9.000000e-01
1.000000e+00
9.000000e-01
1.000000e+00
9.000000e-01
1.000000e+00
</DataArray>
<DataArray type="Float32" Name="V5" format="ascii">
0.000000e+00
0.000000e+00
3.272490e-02
3.272490e-02
3.272490e-02
3.272490e-02
6.544980e-02
6.544980e-02
6.544980e-02
6.544980e-02
9.817480e-02
9.817480e-02
9.817480e-02
9.817480e-02
1.309000e-01
1.309000e-01
1.309000e-01
1.309000e-01
1.636250e-01
1.636250e-01
1.636250e-01
1.636250e-01
1.963500e-01
1.963500e-01
1.963500e-01
1.963500e-01
2.290740e-01
2.290740e-01
2.290740e-01
2.290740e-01
2.617990e-01
2.617990e-01
2.617990e-01
2.617990e-01
2.945240e-01
2.945240e-01
2.945240e-01
2.945240e-01
3.272490e-01
3.272490e-01
3.272490e-01
3.272490e-01
3.599740e-01
3.599740e-01
3.599740e-01
3.599740e-01
3.926990e-01
3.926990e-01
3.926990e-01
3.926990e-01
4.254240e-01
4.254240e-01
4.254240e-01
4.254240e-01
4.581490e-01
4.581490e-01
4.581490e-01
4.581490e-01
4.908740e-01
4.908740e-01
4.908740e-01
4.908740e-01
5.235990e-01
5.235990e-01
5.235990e-01
5.235990e-01
5.563240e-01
5.563240e-01
5.563240e-01
5.563240e-01
5.890490e-01
5.890490e-01
5.890490e-01
5.890490e-01
6.217740e-01
6.217740e-01
6.217740e-01
6.217740e-01
6.544980e-01
6.544980e-01
6.544980e-01
6.544980e-01
6.872230e-01
6.872230e-01
6.872230e-01
6.872230e-01
7.199480e-01
7.199480e-01
7.199480e-01
7.199480e-01
7.526730e-01
7.526730e-01
7.526730e-01
7.526730e-01
7.853980e-01
7.853980e-01
7.853980e-01
7.853980e-01
8.181230e-01
8.181230e-01
8.181230e-01
8.181230e-01
8.508480e-01
8.508480e-01
8.508480e-01
8.508480e-01
8.835730e-01
8.835730e-01
8.835730e-01
8.835730e-01
9.162980e-01
9.162980e-01
9.162980e-01
9.162980e-01
9.490230e-01
9.490230e-01
9.490230e-01
9.490230e-01
9.817480e-01
9.817480e-01
9.817480e-01
9.817480e-01
1.014470e+00
1.014470e+00
1.014470e+00
1.014470e+00
1.047200e+00
1.047200e+00
1.047200e+00
1.047200e+00
1.079920e+00
1.079920e+00
1.079920e+00
1.079920e+00
1.112650e+00
1.112650e+00
1.112650e+00
1.112650e+00
1.145370e+00
1.145370e+00
1.145370e+00
1.145370e+00
1.178100e+00
1.178100e+00
1.178100e+00
1.178100e+00
1.210820e+00
1.210820e+00
1.210820e+00
1.210820e+00
1.243550e+00
1.243550e+00
1.243550e+00
1.243550e+00
1.276270e+00
1.276270e+00
1.276270e+00
1.276270e+00
1.309000e+00
1.309000e+00
1.309000e+00
1.309000e+00
1.341720e+00
1.341720e+00
1.341720e+00
1.341720e+00
1.374450e+00
1.374450e+00
1.374450e+00
1.374450e+00
1.407170e+00
1.407170e+00
1.407170e+00
1.407170e+00
1.439900e+00
1.439900e+00
1.439900e+00
1.439900e+00
1.472620e+00
1.472620e+00
1.472620e+00
1.472620e+00
1.505350e+00
1.505350e+00
1.505350e+00
1.505350e+00
1.538070e+00
1.538070e+00
1.538070e+00
1.538070e+00
1.570800e+00
1.570800e+00
</DataArray>
</PointData>
</Piece></UnstructuredGrid>
</VTKFile>
