<?xml version="1.0"?>
<VTKFile type="UnstructuredGrid" version="0.1" byte_order="LittleEndian" compressor="vtkZLibDataCompressor">
<UnstructuredGrid>
<Piece NumberOfPoints="192" NumberOfCells="48">
<Points>
<DataArray type="Float32" NumberOfComponents="3" format="ascii">
0.000000e+00 6.714580e-01 0.000000e+00
0.000000e+00 7.700000e-01 0.000000e+00
3.135730e-02 6.714710e-01 0.000000e+00
3.132030e-02 7.700000e-01 0.000000e+00
3.135730e-02 6.714710e-01 0.000000e+00
3.132030e-02 7.700000e-01 0.000000e+00
6.271260e-02 6.715110e-01 0.000000e+00
6.263830e-02 7.700000e-01 0.000000e+00
6.271260e-02 6.715110e-01 0.000000e+00
6.263830e-02 7.700000e-01 0.000000e+00
9.406410e-02 6.715770e-01 0.000000e+00
9.395180e-02 7.700000e-01 0.000000e+00
9.406410e-02 6.715770e-01 0.000000e+00
9.395180e-02 7.700000e-01 0.000000e+00
1.254100e-01 6.716700e-01 0.000000e+00
1.252580e-01 7.700000e-01 0.000000e+00
1.254100e-01 6.716700e-01 0.000000e+00
1.252580e-01 7.700000e-01 0.000000e+00
1.567490e-01 6.717890e-01 0.000000e+00
1.565560e-01 7.700000e-01 0.000000e+00
1.567490e-01 6.717890e-01 0.000000e+00
1.565560e-01 7.700000e-01 0.000000e+00
1.880800e-01 6.719360e-01 0.000000e+00
1.878420e-01 7.700000e-01 0.000000e+00
1.880800e-01 6.719360e-01 0.000000e+00
1.878420e-01 7.700000e-01 0.000000e+00
2.194020e-01 6.721130e-01 0.000000e+00
2.191160e-01 7.700000e-01 0.000000e+00
2.194020e-01 6.721130e-01 0.000000e+00
2.191160e-01 7.700000e-01 0.000000e+00
2.507140e-01 6.723240e-01 0.000000e+00
2.503790e-01 7.700000e-01 0.000000e+00
2.507140e-01 6.723240e-01 0.000000e+00
2.503790e-01 7.700000e-01 0.000000e+00
2.820120e-01 6.725770e-01 0.000000e+00
2.816380e-01 7.700000e-01 0.000000e+00
2.820120e-01 6.725770e-01 0.000000e+00
2.816380e-01 7.700000e-01 0.000000e+00
3.132850e-01 6.728820e-01 0.000000e+00
3.129110e-01 7.700000e-01 0.000000e+00
3.132850e-01 6.728820e-01 0.000000e+00
3.129110e-01 7.700000e-01 0.000000e+00
3.445090e-01 6.732530e-01 0.000000e+00
3.442330e-01 7.700000e-01 0.000000e+00
3.445090e-01 6.732530e-01 0.000000e+00
3.442330e-01 7.700000e-01 0.000000e+00
3.756270e-01 6.736980e-01 0.000000e+00
3.756690e-01 7.700000e-01 0.000000e+00
3.756270e-01 6.736980e-01 0.000000e+00
3.756690e-01 7.700000e-01 0.000000e+00
4.065330e-01 6.741940e-01 0.000000e+00
4.073130e-01 7.700000e-01 0.000000e+00
4.065330e-01 6.741940e-01 0.000000e+00
4.073130e-01 7.700000e-01 0.000000e+00
4.370510e-01 6.746390e-01 0.000000e+00
4.392860e-01 7.700000e-01 0.000000e+00
4.370510e-01 6.746390e-01 0.000000e+00
4.392860e-01 7.700000e-01 0.000000e+00
4.669680e-01 6.747490e-01 0.000000e+00
4.716810e-01 7.700000e-01 0.000000e+00
4.669680e-01 6.747490e-01 0.000000e+00
4.716810e-01 7.700000e-01 0.000000e+00
4.962920e-01 6.741440e-01 0.000000e+00
5.044060e-01 7.696480e-01 0.000000e+00
4.962920e-01 6.741440e-01 0.000000e+00
5.044060e-01 7.696480e-01 0.000000e+00
5.249350e-01 6.723150e-01 0.000000e+00
5.373390e-01 7.671410e-01 0.000000e+00
5.249350e-01 6.723150e-01 0.000000e+00
5.373390e-01 7.671410e-01 0.000000e+00
5.528560e-01 6.689220e-01 0.000000e+00
5.704070e-01 7.624760e-01 0.000000e+00
5.528560e-01 6.689220e-01 0.000000e+00
5.704070e-01 7.624760e-01 0.000000e+00
5.801480e-01 6.637150e-01 0.000000e+00
6.033350e-01 7.555650e-01 0.000000e+00
5.801480e-01 6.637150e-01 0.000000e+00
6.033350e-01 7.555650e-01 0.000000e+00
6.068210e-01 6.566160e-01 0.000000e+00
6.358350e-01 7.463420e-01 0.000000e+00
6.068210e-01 6.566160e-01 0.000000e+00
6.358350e-01 7.463420e-01 0.000000e+00
6.328410e-01 6.476190e-01 0.000000e+00
6.676450e-01 7.348310e-01 0.000000e+00
6.328410e-01 6.476190e-01 0.000000e+00
6.676450e-01 7.348310e-01 0.000000e+00
6.581580e-01 6.367660e-01 0.000000e+00
6.985530e-01 7.211290e-01 0.000000e+00
6.581580e-01 6.367660e-01 0.000000e+00
6.985530e-01 7.211290e-01 0.000000e+00
6.827160e-01 6.241310e-01 0.000000e+00
7.283950e-01 7.053780e-01 0.000000e+00
6.827160e-01 6.241310e-01 0.000000e+00
7.283950e-01 7.053780e-01 0.000000e+00
7.064640e-01 6.098090e-01 0.000000e+00
7.570550e-01 6.877450e-01 0.000000e+00
7.064640e-01 6.098090e-01 0.000000e+00
7.570550e-01 6.877450e-01 0.000000e+00
7.293570e-01 5.939090e-01 0.000000e+00
7.844620e-01 6.684040e-01 0.000000e+00
7.293570e-01 5.939090e-01 0.000000e+00
7.844620e-01 6.684040e-01 0.000000e+00
7.513590e-01 5.765440e-01 0.000000e+00
8.105750e-01 6.475250e-01 0.000000e+00
7.513590e-01 5.765440e-01 0.000000e+00
8.105750e-01 6.475250e-01 0.000000e+00
7.724420e-01 5.578300e-01 0.000000e+00
8.353800e-01 6.252700e-01 0.000000e+00
7.724420e-01 5.578300e-01 0.000000e+00
8.353800e-01 6.252700e-01 0.000000e+00
7.925840e-01 5.378780e-01 0.000000e+00
8.588820e-01 6.017830e-01 0.000000e+00
7.925840e-01 5.378780e-01 0.000000e+00
8.588820e-01 6.017830e-01 0.000000e+00
8.117720e-01 5.167970e-01 0.000000e+00
8.810950e-01 5.771940e-01 0.000000e+00
8.117720e-01 5.167970e-01 0.000000e+00
8.810950e-01 5.771940e-01 0.000000e+00
8.299970e-01 4.946870e-01 0.000000e+00
9.020410e-01 5.516200e-01 0.000000e+00
8.299970e-01 4.946870e-01 0.000000e+00
9.020410e-01 5.516200e-01 0.000000e+00
8.472520e-01 4.716410e-01 0.000000e+00
9.217450e-01 5.251590e-01 0.000000e+00
8.472520e-01 4.716410e-01 0.000000e+00
9.217450e-01 5.251590e-01 0.000000e+00
8.635320e-01 4.477460e-01 0.000000e+00
9.402310e-01 4.979010e-01 0.000000e+00
8.635320e-01 4.477460e-01 0.000000e+00
9.402310e-01 4.979010e-01 0.000000e+00
8.788380e-01 4.230820e-01 0.000000e+00
9.575220e-01 4.699240e-01 0.000000e+00
8.788380e-01 4.230820e-01 0.000000e+00
9.575220e-01 4.699240e-01 0.000000e+00
8.931660e-01 3.977200e-01 0.000000e+00
9.736400e-01 4.412950e-01 0.000000e+00
8.931660e-01 3.977200e-01 0.000000e+00
9.736400e-01 4.412950e-01 0.000000e+00
9.065160e-01 3.717280e-01 0.000000e+00
9.886020e-01 4.120780e-01 0.000000e+00
9.065160e-01 3.717280e-01 0.000000e+00
9.886020e-01 4.120780e-01 0.000000e+00
9.188870e-01 3.451680e-01 0.000000e+00
1.002420e+00 3.823270e-01 0.000000e+00
9.188870e-01 3.451680e-01 0.000000e+00
1.002420e+00 3.823270e-01 0.000000e+00
9.302780e-01 3.180960e-01 0.000000e+00
1.015120e+00 3.520940e-01 0.000000e+00
9.302780e-01 3.180960e-01 0.000000e+00
1.015120e+00 3.520940e-01 0.000000e+00
9.406870e-01 2.905670e-01 0.000000e+00
1.026690e+00 3.214260e-01 0.000000e+00
9.406870e-01 2.905670e-01 0.000000e+00
1.026690e+00 3.214260e-01 0.000000e+00
9.501140e-01 2.626280e-01 0.000000e+00
1.037150e+00 2.903690e-01 0.000000e+00
9.501140e-01 2.626280e-01 0.000000e+00
1.037150e+00 2.903690e-01 0.000000e+00
9.585550e-01 2.343290e-01 0.000000e+00
1.046500e+00 2.589650e-01 0.000000e+00
9.585550e-01 2.343290e-01 0.000000e+00
1.046500e+00 2.589650e-01 0.000000e+00
9.660100e-01 2.057130e-01 0.000000e+00
1.054750e+00 2.272550e-01 0.000000e+00
9.660100e-01 2.057130e-01 0.000000e+00
1.054750e+00 2.272550e-01 0.000000e+00
9.724760e-01 1.768240e-01 0.000000e+00
1.061900e+00 1.952790e-01 0.000000e+00
9.724760e-01 1.768240e-01 0.000000e+00
1.061900e+00 1.952790e-01 0.000000e+00
9.779510e-01 1.477030e-01 0.000000e+00
1.067950e+00 1.630770e-01 0.000000e+00
9.779510e-01 1.477030e-01 0.000000e+00
1.067950e+00 1.630770e-01 0.000000e+00
9.824330e-01 1.183900e-01 0.000000e+00
1.072890e+00 1.306860e-01 0.000000e+00
9.824330e-01 1.183900e-01 0.000000e+00
1.072890e+00 1.306860e-01 0.000000e+00
9.859210e-01 8.892530e-02 0.000000e+00
1.076740e+00 9.814570e-02 0.000000e+00
9.859210e-01 8.892530e-02 0.000000e+00
1.076740e+00 9.814570e-02 0.000000e+00
9.884140e-01 5.934650e-02 0.000000e+00
1.079490e+00 6.549280e-02 0.000000e+00
9.884140e-01 5.934650e-02 0.000000e+00
1.079490e+00 6.549280e-02 0.000000e+00
9.899100e-01 2.969210e-02 0.000000e+00
1.081140e+00 3.276510e-02 0.000000e+00
9.899100e-01 2.969210e-02 0.000000e+00
1.081140e+00 3.276510e-02 0.000000e+00
9.904090e-01 4.849620e-12 0.000000e+00
1.081690e+00 5.296600e-12 0.000000e+00
</DataArray>
</Points>
<Cells>
<DataArray type="Int32" Name="connectivity" format="ascii">
0 1 3 2
4 5 7 6
8 9 11 10
12 13 15 14
16 17 19 18
20 21 23 22
24 25 27 26
28 29 31 30
32 33 35 34
36 37 39 38
40 41 43 42
44 45 47 46
48 49 51 50
52 53 55 54
56 57 59 58
60 61 63 62
64 65 67 66
68 69 71 70
72 73 75 74
76 77 79 78
80 81 83 82
84 85 87 86
88 89 91 90
92 93 95 94
96 97 99 98
100 101 103 102
104 105 107 106
108 109 111 110
112 113 115 114
116 117 119 118
120 121 123 122
124 125 127 126
128 129 131 130
132 133 135 134
136 137 139 138
140 141 143 142
144 145 147 146
148 149 151 150
152 153 155 154
156 157 159 158
160 161 163 162
164 165 167 166
168 169 171 170
172 173 175 174
176 177 179 178
180 181 183 182
184 185 187 186
188 189 191 190
</DataArray>
<DataArray type="Int32" Name="offsets" format="ascii">
4
8
12
16
20
24
28
32
36
40
44
48
52
56
60
64
68
72
76
80
84
88
92
96
100
104
108
112
116
120
124
128
132
136
140
144
148
152
156
160
164
168
172
176
180
184
188
192
</DataArray>
<DataArray type="UInt8" Name="types" format="ascii">
9
9
9
9
9
9
9
9
9
9
9
9
9
9
9
9
9
9
9
9
9
9
9
9
9
9
9
9
9
9
9
9
9
9
9
9
9
9
9
9
9
9
9
9
9
9
9
9
</DataArray>
</Cells>
<PointData>
<DataArray type="Float32" Name="V1" format="ascii">
9.422360e-01
-1.111220e+00
9.437870e-01
-1.109670e+00
9.440020e-01
-1.109440e+00
9.476280e-01
-1.105820e+00
9.479270e-01
-1.105620e+00
9.543010e-01
-1.099250e+00
9.546030e-01
-1.099210e+00
9.636650e-01
-1.090140e+00
9.641010e-01
-1.090310e+00
9.758040e-01
-1.078610e+00
9.765330e-01
-1.079090e+00
9.907840e-01
-1.064840e+00
9.920010e-01
-1.065800e+00
1.008590e+00
-1.049220e+00
1.010460e+00
-1.050790e+00
1.028960e+00
-1.032300e+00
1.031410e+00
-1.034380e+00
1.051010e+00
-1.014790e+00
1.053200e+00
-1.016560e+00
1.072610e+00
-9.971500e-01
1.071780e+00
-9.959940e-01
1.089290e+00
-9.784820e-01
1.078590e+00
-9.680560e-01
1.092850e+00
-9.537990e-01
1.057810e+00
-9.208460e-01
1.070350e+00
-9.083030e-01
9.842630e-01
-8.287470e-01
1.006010e+00
-8.070010e-01
8.270770e-01
-6.435430e-01
8.908090e-01
-5.798100e-01
5.706240e-01
-2.602280e-01
6.904840e-01
-1.403680e-01
3.830090e-01
1.538100e-01
4.409210e-01
2.117220e-01
2.468310e-01
3.853060e-01
2.869770e-01
4.254520e-01
1.508420e-01
5.510650e-01
1.916000e-01
5.918240e-01
1.008340e-01
6.758280e-01
1.421220e-01
7.171160e-01
8.774600e-02
7.673650e-01
1.279930e-01
8.076130e-01
1.020820e-01
8.315190e-01
1.401150e-01
8.695520e-01
1.356660e-01
8.736360e-01
1.707320e-01
9.087020e-01
1.817290e-01
8.985260e-01
2.134120e-01
9.302090e-01
2.348570e-01
9.103760e-01
2.630020e-01
9.385210e-01
2.908960e-01
9.127130e-01
3.155470e-01
9.373630e-01
3.468050e-01
9.084220e-01
3.681380e-01
9.297550e-01
4.004770e-01
8.997880e-01
4.187540e-01
9.180650e-01
4.505600e-01
8.885690e-01
4.660840e-01
9.040920e-01
4.962810e-01
8.760660e-01
5.093700e-01
8.891550e-01
5.373000e-01
8.632150e-01
5.482660e-01
8.741810e-01
5.735820e-01
8.506540e-01
5.827180e-01
8.597890e-01
6.052960e-01
8.387940e-01
6.128690e-01
8.463670e-01
6.327420e-01
8.278780e-01
6.389920e-01
8.341280e-01
6.562900e-01
8.180280e-01
6.614250e-01
8.231640e-01
6.763390e-01
8.092780e-01
6.805420e-01
8.134810e-01
6.932910e-01
8.016070e-01
6.967180e-01
8.050340e-01
7.075310e-01
7.949590e-01
7.103120e-01
7.977410e-01
7.194140e-01
7.892600e-01
7.216620e-01
7.915070e-01
7.292620e-01
7.844230e-01
7.310680e-01
7.862290e-01
7.373580e-01
7.803660e-01
7.387990e-01
7.818070e-01
7.439470e-01
7.770080e-01
7.450850e-01
7.781460e-01
7.492370e-01
7.742740e-01
7.501240e-01
7.751610e-01
7.534030e-01
7.721030e-01
7.540780e-01
7.727780e-01
7.565850e-01
7.704410e-01
7.570790e-01
7.709350e-01
7.588920e-01
7.692450e-01
7.592290e-01
7.695820e-01
7.604060e-01
7.684850e-01
7.606020e-01
7.686810e-01
7.611800e-01
7.681410e-01
7.612450e-01
7.682060e-01
</DataArray>
<DataArray type="Float32" Name="V2" format="ascii">
6.714580e-01
7.700000e-01
6.721380e-01
7.706130e-01
6.721380e-01
7.706130e-01
6.741750e-01
7.724480e-01
6.741750e-01
7.724480e-01
6.775630e-01
7.755010e-01
6.775630e-01
7.755010e-01
6.822930e-01
7.797620e-01
6.822930e-01
7.797620e-01
6.883500e-01
7.852180e-01
6.883500e-01
7.852180e-01
6.957180e-01
7.918510e-01
6.957180e-01
7.918510e-01
7.043770e-01
7.996410e-01
7.043770e-01
7.996410e-01
7.143050e-01
8.085660e-01
7.143050e-01
8.085660e-01
7.254800e-01
8.185990e-01
7.254800e-01
8.185990e-01
7.378750e-01
8.297180e-01
7.378750e-01
8.297180e-01
7.514550e-01
8.419040e-01
7.514550e-01
8.419040e-01
7.661620e-01
8.551490e-01
7.661620e-01
8.551490e-01
7.818780e-01
8.694660e-01
7.818780e-01
8.694660e-01
7.983680e-01
8.848830e-01
7.983680e-01
8.848830e-01
8.152030e-01
9.014280e-01
8.152030e-01
9.014280e-01
8.319720e-01
9.187380e-01
8.319720e-01
9.187380e-01
8.481330e-01
9.352090e-01
8.481330e-01
9.352090e-01
8.633390e-01
9.508770e-01
8.633390e-01
9.508770e-01
8.774220e-01
9.655870e-01
8.774220e-01
9.655870e-01
8.903370e-01
9.791840e-01
8.903370e-01
9.791840e-01
9.020860e-01
9.915820e-01
9.020860e-01
9.915820e-01
9.127000e-01
1.002760e+00
9.127000e-01
1.002760e+00
9.222300e-01
1.012760e+00
9.222300e-01
1.012760e+00
9.307460e-01
1.021630e+00
9.307460e-01
1.021630e+00
9.383230e-01
1.029470e+00
9.383230e-01
1.029470e+00
9.450440e-01
1.036370e+00
9.450440e-01
1.036370e+00
9.509890e-01
1.042420e+00
9.509890e-01
1.042420e+00
9.562390e-01
1.047740e+00
9.562390e-01
1.047740e+00
9.608690e-01
1.052400e+00
9.608690e-01
1.052400e+00
9.649510e-01
1.056480e+00
9.649510e-01
1.056480e+00
9.685460e-01
1.060070e+00
9.685460e-01
1.060070e+00
9.717140e-01
1.063210e+00
9.717140e-01
1.063210e+00
9.745050e-01
1.065980e+00
9.745050e-01
1.065980e+00
9.769630e-01
1.068410e+00
9.769630e-01
1.068410e+00
9.791270e-01
1.070550e+00
9.791270e-01
1.070550e+00
9.810310e-01
1.072430e+00
9.810310e-01
1.072430e+00
9.827020e-01
1.074080e+00
9.827020e-01
1.074080e+00
9.841650e-01
1.075520e+00
9.841650e-01
1.075520e+00
9.854390e-01
1.076780e+00
9.854390e-01
1.076780e+00
9.865420e-01
1.077870e+00
9.865420e-01
1.077870e+00
9.874870e-01
1.078800e+00
9.874870e-01
1.078800e+00
9.882870e-01
1.079590e+00
9.882870e-01
1.079590e+00
9.889490e-01
1.080250e+00
9.889490e-01
1.080250e+00
9.894810e-01
1.080770e+00
9.894810e-01
1.080770e+00
9.898900e-01
1.081180e+00
9.898900e-01
1.081180e+00
9.901790e-01
1.081460e+00
9.901790e-01
1.081460e+00
9.903510e-01
1.081630e+00
9.903510e-01
1.081630e+00
9.904090e-01
1.081690e+00
</DataArray>
<DataArray type="Float32" Name="V3" format="ascii">
0.000000e+00
0.000000e+00
9.370540e-03
6.109810e-03
9.370540e-03
6.109810e-03
1.865940e-02
1.214380e-02
1.865940e-02
1.214380e-02
2.778510e-02
1.802620e-02
2.778510e-02
1.802620e-02
3.666680e-02
2.368170e-02
3.666680e-02
2.368170e-02
4.522420e-02
2.903520e-02
4.522420e-02
2.903520e-02
5.337810e-02
3.401310e-02
5.337810e-02
3.401310e-02
6.104990e-02
3.854310e-02
6.104990e-02
3.854310e-02
6.816080e-02
4.255660e-02
6.816080e-02
4.255660e-02
7.462960e-02
4.599130e-02
7.462960e-02
4.599130e-02
8.036820e-02
4.879600e-02
8.036820e-02
4.879600e-02
8.527410e-02
5.093730e-02
8.527410e-02
5.093730e-02
8.922090e-02
5.240630e-02
8.922090e-02
5.240630e-02
9.205100e-02
5.322270e-02
9.205100e-02
5.322270e-02
9.359380e-02
5.342140e-02
9.359380e-02
5.342140e-02
9.375500e-02
5.301030e-02
9.375500e-02
5.301030e-02
9.272910e-02
5.200460e-02
9.272910e-02
5.200460e-02
9.074760e-02
5.120690e-02
9.074760e-02
5.120690e-02
8.805000e-02
5.066710e-02
8.805000e-02
5.066710e-02
8.497250e-02
5.031910e-02
8.497250e-02
5.031910e-02
8.170110e-02
5.009740e-02
8.170110e-02
5.009740e-02
7.834760e-02
4.992490e-02
7.834760e-02
4.992490e-02
7.498010e-02
4.972640e-02
7.498010e-02
4.972640e-02
7.163870e-02
4.943770e-02
7.163870e-02
4.943770e-02
6.834540e-02
4.900950e-02
6.834540e-02
4.900950e-02
6.511040e-02
4.840780e-02
6.511040e-02
4.840780e-02
6.193680e-02
4.761350e-02
6.193680e-02
4.761350e-02
5.882360e-02
4.661940e-02
5.882360e-02
4.661940e-02
5.576710e-02
4.542780e-02
5.576710e-02
4.542780e-02
5.276240e-02
4.404760e-02
5.276240e-02
4.404760e-02
4.980440e-02
4.249220e-02
4.980440e-02
4.249220e-02
4.688750e-02
4.077750e-02
4.688750e-02
4.077750e-02
4.400650e-02
3.892020e-02
4.400650e-02
3.892020e-02
4.115650e-02
3.693710e-02
4.115650e-02
3.693710e-02
3.833300e-02
3.484420e-02
3.833300e-02
3.484420e-02
3.553170e-02
3.265620e-02
3.553170e-02
3.265620e-02
3.274920e-02
3.038680e-02
3.274920e-02
3.038680e-02
2.998220e-02
2.804790e-02
2.998220e-02
2.804790e-02
2.722780e-02
2.565010e-02
2.722780e-02
2.565010e-02
2.448360e-02
2.320280e-02
2.448360e-02
2.320280e-02
2.174770e-02
2.071410e-02
2.174770e-02
2.071410e-02
1.901830e-02
1.819090e-02
1.901830e-02
1.819090e-02
1.629390e-02
1.563950e-02
1.629390e-02
1.563950e-02
1.357330e-02
1.306510e-02
1.357330e-02
1.306510e-02
1.085560e-02
1.047260e-02
1.085560e-02
1.047260e-02
8.140090e-03
7.866180e-03
8.140090e-03
7.866180e-03
5.425970e-03
5.249600e-03
5.425970e-03
5.249600e-03
2.712770e-03
2.626430e-03
2.712770e-03
2.626430e-03
0.000000e+00
0.000000e+00
</DataArray>
<DataArray type="Float32" Name="V4" format="ascii">
9.000000e-01
1.000000e+00
9.000000e-01
1.000000e+00
9.000000e-01
1.000000e+00
9.000000e-01
1.000000e+00
9.000000e-01
1.000000e+00
9.000000e-01
1.000000e+00
9.000000e-01
1.000000e+00
9.000000e-01
1.000000e+00
9.000000e-01
1.000000e+00
9.000000e-01
1.000000e+00
9.000000e-01
1.000000e+00
9.000000e-01
1.000000e+00
9.000000e-01
1.000000e+00
9.000000e-01
1.000000e+00
9.000000e-01
1.000000e+00
9.000000e-01
1.000000e+00
9.000000e-01
1.000000e+00
9.000000e-01
1.000000e+00
9.000000e-01
1.000000e+00
9.000000e-01
1.000000e+00
9.000000e-01
1.000000e+00
9.000000e-01
1.000000e+00
9.000000e-01
1.000000e+00
9.000000e-01
1.000000e+00
9.000000e-01
1.000000e+00
9.000000e-01
1.000000e+00
9.000000e-01
1.000000e+00
9.000000e-01
1.000000e+00
9.000000e-01
1.000000e+00
9.000000e-01
1.000000e+00
9.000000e-01
1.000000e+00
9.000000e-01
1.000000e+00
9.000000e-01
1.000000e+00
9.000000e-01
1.000000e+00
9.000000e-01
1.000000e+00
9.000000e-01
1.000000e+00
9.000000e-01
1.000000e+00
9.000000e-01
1.000000e+00
9.000000e-01
1.000000e+00
9.000000e-01
1.000000e+00
9.000000e-01
1.000000e+00
9.000000e-01
1.000000e+00
9.000000e-01
1.000000e+00
9.000000e-01
1.000000e+00
9.000000e-01
1.000000e+00
9.000000e-01
1.000000e+00
9.000000e-01
1.000000e+00
9.000000e-01
1.000000e+00
9.000000e-01
1.000000e+00
9.000000e-01
1.000000e+00
9.000000e-01
1.000000e+00
9.000000e-01
1.000000e+00
9.000000e-01
1.000000e+00
9.000000e-01
1.000000e+00
9.000000e-01
1.000000e+00
9.000000e-01
1.000000e+00
9.000000e-01
1.000000e+00
9.000000e-01
1.000000e+00
9.000000e-01
1.000000e+00
9.000000e-01
1.000000e+00
9.000000e-01
1.000000e+00
9.000000e-01
1.000000e+00
9.000000e-01
1.000000e+00
9.000000e-01
1.000000e+00
9.000000e-01
1.000000e+00
9.000000e-01
1.000000e+00
9.000000e-01
1.000000e+00
9.000000e-01
1.000000e+00
9.000000e-01
1.000000e+00
9.000000e-01
1.000000e+00
9.000000e-01
1.000000e+00
9.000000e-01
1.000000e+00
9.000000e-01
1.000000e+00
9.000000e-01
1.000000e+00
9.000000e-01
1.000000e+00
9.000000e-01
1.000000e+00
9.000000e-01
1.000000e+00
9.000000e-01
1.000000e+00
9.000000e-01
1.000000e+00
9.000000e-01
1.000000e+00
9.000000e-01
1.000000e+00
9.000000e-01
1.000000e+00
9.000000e-01
1.000000e+00
9.000000e-01
1.000000e+00
9.000000e-01
1.000000e+00
9.000000e-01
1.000000e+00
9.000000e-01
1.000000e+00
9.000000e-01
1.000000e+00
9.000000e-01
1.000000e+00
9.000000e-01
1.000000e+00
9.000000e-01
1.000000e+00
9.000000e-01
1.000000e+00
9.000000e-01
1.000000e+00
9.000000e-01
1.000000e+00
9.000000e-01
1.000000e+00
9.000000e-01
1.000000e+00
</DataArray>
<DataArray type="Float32" Name="V5" format="ascii">
0.000000e+00
0.000000e+00
3.272490e-02
3.272490e-02
3.272490e-02
3.272490e-02
6.544980e-02
6.544980e-02
6.544980e-02
6.544980e-02
9.817480e-02
9.817480e-02
9.817480e-02
9.817480e-02
1.309000e-01
1.309000e-01
1.309000e-01
1.309000e-01
1.636250e-01
1.636250e-01
1.636250e-01
1.636250e-01
1.963500e-01
1.963500e-01
1.963500e-01
1.963500e-01
2.290740e-01
2.290740e-01
2.290740e-01
2.290740e-01
2.617990e-01
2.617990e-01
2.617990e-01
2.617990e-01
2.945240e-01
2.945240e-01
2.945240e-01
2.945240e-01
3.272490e-01
3.272490e-01
3.272490e-01
3.272490e-01
3.599740e-01
3.599740e-01
3.599740e-01
3.599740e-01
3.926990e-01
3.926990e-01
3.926990e-01
3.926990e-01
4.254240e-01
4.254240e-01
4.254240e-01
4.254240e-01
4.581490e-01
4.581490e-01
4.581490e-01
4.581490e-01
4.908740e-01
4.908740e-01
4.908740e-01
4.908740e-01
5.235990e-01
5.235990e-01
5.235990e-01
5.235990e-01
5.563240e-01
5.563240e-01
5.563240e-01
5.563240e-01
5.890490e-01
5.890490e-01
5.890490e-01
5.890490e-01
6.217740e-01
6.217740e-01
6.217740e-01
6.217740e-01
6.544980e-01
6.544980e-01
6.544980e-01
6.544980e-01
6.872230e-01
6.872230e-01
6.872230e-01
6.872230e-01
7.199480e-01
7.199480e-01
7.199480e-01
7.199480e-01
7.526730e-01
7.526730e-01
7.526730e-01
7.526730e-01
7.853980e-01
7.853980e-01
7.853980e-01
7.853980e-01
8.181230e-01
8.181230e-01
8.181230e-01
8.181230e-01
8.508480e-01
8.508480e-01
8.508480e-01
8.508480e-01
8.835730e-01
8.835730e-01
8.835730e-01
8.835730e-01
9.162980e-01
9.162980e-01
9.162980e-01
9.162980e-01
9.490230e-01
9.490230e-01
9.490230e-01
9.490230e-01
9.817480e-01
9.817480e-01
9.817480e-01
9.817480e-01
1.014470e+00
1.014470e+00
1.014470e+00
1.014470e+00
1.047200e+00
1.047200e+00
1.047200e+00
1.047200e+00
1.079920e+00
1.079920e+00
1.079920e+00
1.079920e+00
1.112650e+00
1.112650e+00
1.112650e+00
1.112650e+00
1.145370e+00
1.145370e+00
1.145370e+00
1.145370e+00
1.178100e+00
1.178100e+00
1.178100e+00
1.178100e+00
1.210820e+00
1.210820e+00
1.210820e+00
1.210820e+00
1.243550e+00
1.243550e+00
1.243550e+00
1.243550e+00
1.276270e+00
1.276270e+00
1.276270e+00
1.276270e+00
1.309000e+00
1.309000e+00
1.309000e+00
1.309000e+00
1.341720e+00
1.341720e+00
1.341720e+00
1.341720e+00
1.374450e+00
1.374450e+00
1.374450e+00
1.374450e+00
1.407170e+00
1.407170e+00
1.407170e+00
1.407170e+00
1.439900e+00
1.439900e+00
1.439900e+00
1.439900e+00
1.472620e+00
1.472620e+00
1.472620e+00
1.472620e+00
1.505350e+00
1.505350e+00
1.505350e+00
1.505350e+00
1.538070e+00
1.538070e+00
1.538070e+00
1.538070e+00
1.570800e+00
1.570800e+00
</DataArray>
</PointData>
</Piece></UnstructuredGrid>
</VTKFile>
