<?xml version="1.0"?>
<VTKFile type="UnstructuredGrid" version="0.1" byte_order="LittleEndian" compressor="vtkZLibDataCompressor">
<UnstructuredGrid>
<Piece NumberOfPoints="192" NumberOfCells="48">
<Points>
<DataArray type="Float32" NumberOfComponents="3" format="ascii">
0.000000e+00 6.904660e-01 0.000000e+00
0.000000e+00 7.900000e-01 0.000000e+00
3.120140e-02 6.904790e-01 0.000000e+00
3.116320e-02 7.900000e-01 0.000000e+00
3.120140e-02 6.904790e-01 0.000000e+00
3.116320e-02 7.900000e-01 0.000000e+00
6.240100e-02 6.905190e-01 0.000000e+00
6.232390e-02 7.900000e-01 0.000000e+00
6.240100e-02 6.905190e-01 0.000000e+00
6.232390e-02 7.900000e-01 0.000000e+00
9.359710e-02 6.905850e-01 0.000000e+00
9.347970e-02 7.900000e-01 0.000000e+00
9.359710e-02 6.905850e-01 0.000000e+00
9.347970e-02 7.900000e-01 0.000000e+00
1.247880e-01 6.906770e-01 0.000000e+00
1.246280e-01 7.900000e-01 0.000000e+00
1.247880e-01 6.906770e-01 0.000000e+00
1.246280e-01 7.900000e-01 0.000000e+00
1.559730e-01 6.907980e-01 0.000000e+00
1.557670e-01 7.900000e-01 0.000000e+00
1.559730e-01 6.907980e-01 0.000000e+00
1.557670e-01 7.900000e-01 0.000000e+00
1.871510e-01 6.909490e-01 0.000000e+00
1.868960e-01 7.900000e-01 0.000000e+00
1.871510e-01 6.909490e-01 0.000000e+00
1.868960e-01 7.900000e-01 0.000000e+00
2.183200e-01 6.911340e-01 0.000000e+00
2.180150e-01 7.900000e-01 0.000000e+00
2.183200e-01 6.911340e-01 0.000000e+00
2.180150e-01 7.900000e-01 0.000000e+00
2.494770e-01 6.913610e-01 0.000000e+00
2.491320e-01 7.900000e-01 0.000000e+00
2.494770e-01 6.913610e-01 0.000000e+00
2.491320e-01 7.900000e-01 0.000000e+00
2.806120e-01 6.916400e-01 0.000000e+00
2.802640e-01 7.900000e-01 0.000000e+00
2.806120e-01 6.916400e-01 0.000000e+00
2.802640e-01 7.900000e-01 0.000000e+00
3.117000e-01 6.919850e-01 0.000000e+00
3.114440e-01 7.900000e-01 0.000000e+00
3.117000e-01 6.919850e-01 0.000000e+00
3.114440e-01 7.900000e-01 0.000000e+00
3.426880e-01 6.924040e-01 0.000000e+00
3.427350e-01 7.900000e-01 0.000000e+00
3.426880e-01 6.924040e-01 0.000000e+00
3.427350e-01 7.900000e-01 0.000000e+00
3.734750e-01 6.928790e-01 0.000000e+00
3.742280e-01 7.900000e-01 0.000000e+00
3.734750e-01 6.928790e-01 0.000000e+00
3.742280e-01 7.900000e-01 0.000000e+00
4.038930e-01 6.933120e-01 0.000000e+00
4.060360e-01 7.900000e-01 0.000000e+00
4.038930e-01 6.933120e-01 0.000000e+00
4.060360e-01 7.900000e-01 0.000000e+00
4.337410e-01 6.934390e-01 0.000000e+00
4.382570e-01 7.900000e-01 0.000000e+00
4.337410e-01 6.934390e-01 0.000000e+00
4.382570e-01 7.900000e-01 0.000000e+00
4.630110e-01 6.929000e-01 0.000000e+00
4.708200e-01 7.897070e-01 0.000000e+00
4.630110e-01 6.929000e-01 0.000000e+00
4.708200e-01 7.897070e-01 0.000000e+00
4.916360e-01 6.912080e-01 0.000000e+00
5.036050e-01 7.874090e-01 0.000000e+00
4.916360e-01 6.912080e-01 0.000000e+00
5.036050e-01 7.874090e-01 0.000000e+00
5.195600e-01 6.880310e-01 0.000000e+00
5.365510e-01 7.830450e-01 0.000000e+00
5.195600e-01 6.880310e-01 0.000000e+00
5.365510e-01 7.830450e-01 0.000000e+00
5.468740e-01 6.831100e-01 0.000000e+00
5.694020e-01 7.765220e-01 0.000000e+00
5.468740e-01 6.831100e-01 0.000000e+00
5.694020e-01 7.765220e-01 0.000000e+00
5.735900e-01 6.763570e-01 0.000000e+00
6.018830e-01 7.677560e-01 0.000000e+00
5.735900e-01 6.763570e-01 0.000000e+00
6.018830e-01 7.677560e-01 0.000000e+00
5.996780e-01 6.677530e-01 0.000000e+00
6.337400e-01 7.567540e-01 0.000000e+00
5.996780e-01 6.677530e-01 0.000000e+00
6.337400e-01 7.567540e-01 0.000000e+00
6.250930e-01 6.573280e-01 0.000000e+00
6.647600e-01 7.435940e-01 0.000000e+00
6.250930e-01 6.573280e-01 0.000000e+00
6.647600e-01 7.435940e-01 0.000000e+00
6.497800e-01 6.451450e-01 0.000000e+00
6.947780e-01 7.284010e-01 0.000000e+00
6.497800e-01 6.451450e-01 0.000000e+00
6.947780e-01 7.284010e-01 0.000000e+00
6.736910e-01 6.312900e-01 0.000000e+00
7.236720e-01 7.113310e-01 0.000000e+00
6.736910e-01 6.312900e-01 0.000000e+00
7.236720e-01 7.113310e-01 0.000000e+00
6.967810e-01 6.158650e-01 0.000000e+00
7.513640e-01 6.925490e-01 0.000000e+00
6.967810e-01 6.158650e-01 0.000000e+00
7.513640e-01 6.925490e-01 0.000000e+00
7.190140e-01 5.989770e-01 0.000000e+00
7.778080e-01 6.722210e-01 0.000000e+00
7.190140e-01 5.989770e-01 0.000000e+00
7.778080e-01 6.722210e-01 0.000000e+00
7.403640e-01 5.807380e-01 0.000000e+00
8.029850e-01 6.505040e-01 0.000000e+00
7.403640e-01 5.807380e-01 0.000000e+00
8.029850e-01 6.505040e-01 0.000000e+00
7.608080e-01 5.612570e-01 0.000000e+00
8.268950e-01 6.275420e-01 0.000000e+00
7.608080e-01 5.612570e-01 0.000000e+00
8.268950e-01 6.275420e-01 0.000000e+00
7.803340e-01 5.406370e-01 0.000000e+00
8.495520e-01 6.034650e-01 0.000000e+00
7.803340e-01 5.406370e-01 0.000000e+00
8.495520e-01 6.034650e-01 0.000000e+00
7.989310e-01 5.189800e-01 0.000000e+00
8.709740e-01 5.783890e-01 0.000000e+00
7.989310e-01 5.189800e-01 0.000000e+00
8.709740e-01 5.783890e-01 0.000000e+00
8.165940e-01 4.963760e-01 0.000000e+00
8.911860e-01 5.524140e-01 0.000000e+00
8.165940e-01 4.963760e-01 0.000000e+00
8.911860e-01 5.524140e-01 0.000000e+00
8.333190e-01 4.729110e-01 0.000000e+00
9.102130e-01 5.256280e-01 0.000000e+00
8.333190e-01 4.729110e-01 0.000000e+00
9.102130e-01 5.256280e-01 0.000000e+00
8.491040e-01 4.486650e-01 0.000000e+00
9.280790e-01 4.981100e-01 0.000000e+00
8.491040e-01 4.486650e-01 0.000000e+00
9.280790e-01 4.981100e-01 0.000000e+00
8.639480e-01 4.237080e-01 0.000000e+00
9.448030e-01 4.699270e-01 0.000000e+00
8.639480e-01 4.237080e-01 0.000000e+00
9.448030e-01 4.699270e-01 0.000000e+00
8.778480e-01 3.981070e-01 0.000000e+00
9.604060e-01 4.411400e-01 0.000000e+00
8.778480e-01 3.981070e-01 0.000000e+00
9.604060e-01 4.411400e-01 0.000000e+00
8.908060e-01 3.719230e-01 0.000000e+00
9.749030e-01 4.118050e-01 0.000000e+00
8.908060e-01 3.719230e-01 0.000000e+00
9.749030e-01 4.118050e-01 0.000000e+00
9.028170e-01 3.452120e-01 0.000000e+00
9.883040e-01 3.819700e-01 0.000000e+00
9.028170e-01 3.452120e-01 0.000000e+00
9.883040e-01 3.819700e-01 0.000000e+00
9.138820e-01 3.180250e-01 0.000000e+00
1.000620e+00 3.516830e-01 0.000000e+00
9.138820e-01 3.180250e-01 0.000000e+00
1.000620e+00 3.516830e-01 0.000000e+00
9.239980e-01 2.904120e-01 0.000000e+00
1.011860e+00 3.209870e-01 0.000000e+00
9.239980e-01 2.904120e-01 0.000000e+00
1.011860e+00 3.209870e-01 0.000000e+00
9.331620e-01 2.624190e-01 0.000000e+00
1.022030e+00 2.899220e-01 0.000000e+00
9.331620e-01 2.624190e-01 0.000000e+00
1.022030e+00 2.899220e-01 0.000000e+00
9.413720e-01 2.340880e-01 0.000000e+00
1.031120e+00 2.585280e-01 0.000000e+00
9.413720e-01 2.340880e-01 0.000000e+00
1.031120e+00 2.585280e-01 0.000000e+00
9.486250e-01 2.054600e-01 0.000000e+00
1.039150e+00 2.268430e-01 0.000000e+00
9.486250e-01 2.054600e-01 0.000000e+00
1.039150e+00 2.268430e-01 0.000000e+00
9.549170e-01 1.765770e-01 0.000000e+00
1.046100e+00 1.949050e-01 0.000000e+00
9.549170e-01 1.765770e-01 0.000000e+00
1.046100e+00 1.949050e-01 0.000000e+00
9.602470e-01 1.474760e-01 0.000000e+00
1.051990e+00 1.627500e-01 0.000000e+00
9.602470e-01 1.474760e-01 0.000000e+00
1.051990e+00 1.627500e-01 0.000000e+00
9.646120e-01 1.181950e-01 0.000000e+00
1.056810e+00 1.304160e-01 0.000000e+00
9.646120e-01 1.181950e-01 0.000000e+00
1.056810e+00 1.304160e-01 0.000000e+00
9.680090e-01 8.877110e-02 0.000000e+00
1.060560e+00 9.793740e-02 0.000000e+00
9.680090e-01 8.877110e-02 0.000000e+00
1.060560e+00 9.793740e-02 0.000000e+00
9.704360e-01 5.924000e-02 0.000000e+00
1.063240e+00 6.535140e-02 0.000000e+00
9.704360e-01 5.924000e-02 0.000000e+00
1.063240e+00 6.535140e-02 0.000000e+00
9.718940e-01 2.963770e-02 0.000000e+00
1.064850e+00 3.269370e-02 0.000000e+00
9.718940e-01 2.963770e-02 0.000000e+00
1.064850e+00 3.269370e-02 0.000000e+00
9.723800e-01 4.761340e-12 0.000000e+00
1.065390e+00 5.216760e-12 0.000000e+00
</DataArray>
</Points>
<Cells>
<DataArray type="Int32" Name="connectivity" format="ascii">
0 1 3 2
4 5 7 6
8 9 11 10
12 13 15 14
16 17 19 18
20 21 23 22
24 25 27 26
28 29 31 30
32 33 35 34
36 37 39 38
40 41 43 42
44 45 47 46
48 49 51 50
52 53 55 54
56 57 59 58
60 61 63 62
64 65 67 66
68 69 71 70
72 73 75 74
76 77 79 78
80 81 83 82
84 85 87 86
88 89 91 90
92 93 95 94
96 97 99 98
100 101 103 102
104 105 107 106
108 109 111 110
112 113 115 114
116 117 119 118
120 121 123 122
124 125 127 126
128 129 131 130
132 133 135 134
136 137 139 138
140 141 143 142
144 145 147 146
148 149 151 150
152 153 155 154
156 157 159 158
160 161 163 162
164 165 167 166
168 169 171 170
172 173 175 174
176 177 179 178
180 181 183 182
184 185 187 186
188 189 191 190
</DataArray>
<DataArray type="Int32" Name="offsets" format="ascii">
4
8
12
16
20
24
28
32
36
40
44
48
52
56
60
64
68
72
76
80
84
88
92
96
100
104
108
112
116
120
124
128
132
136
140
144
148
152
156
160
164
168
172
176
180
184
188
192
</DataArray>
<DataArray type="UInt8" Name="types" format="ascii">
9
9
9
9
9
9
9
9
9
9
9
9
9
9
9
9
9
9
9
9
9
9
9
9
9
9
9
9
9
9
9
9
9
9
9
9
9
9
9
9
9
9
9
9
9
9
9
9
</DataArray>
</Cells>
<PointData>
<DataArray type="Float32" Name="V1" format="ascii">
8.919990e-01
-1.162550e+00
8.935470e-01
-1.161000e+00
8.937950e-01
-1.160810e+00
8.974110e-01
-1.157190e+00
8.977960e-01
-1.157080e+00
9.041390e-01
-1.150740e+00
9.046180e-01
-1.150860e+00
9.136010e-01
-1.141880e+00
9.143530e-01
-1.142340e+00
9.258630e-01
-1.130830e+00
9.270930e-01
-1.131770e+00
9.409060e-01
-1.117950e+00
9.427850e-01
-1.119500e+00
9.584590e-01
-1.103830e+00
9.609260e-01
-1.105900e+00
9.776530e-01
-1.089180e+00
9.799010e-01
-1.090980e+00
9.963890e-01
-1.074490e+00
9.957880e-01
-1.073540e+00
1.010330e+00
-1.059000e+00
1.000400e+00
-1.049270e+00
1.011580e+00
-1.038080e+00
9.786700e-01
-1.007040e+00
9.877980e-01
-9.979130e-01
9.067950e-01
-9.228940e-01
9.239370e-01
-9.057520e-01
7.555750e-01
-7.516730e-01
8.112670e-01
-6.959810e-01
5.082060e-01
-3.955620e-01
6.199080e-01
-2.838590e-01
3.176050e-01
8.694530e-03
3.732600e-01
6.434940e-02
1.774680e-01
2.396960e-01
2.145730e-01
2.768010e-01
7.404860e-02
4.066200e-01
1.116610e-01
4.442320e-01
1.496780e-02
5.337990e-01
5.322150e-02
5.720520e-01
-7.509700e-03
6.282050e-01
2.987510e-02
6.655900e-01
-2.052370e-03
6.950570e-01
3.329620e-02
7.304060e-01
2.364010e-02
7.392940e-01
5.618350e-02
7.718380e-01
6.300890e-02
7.655100e-01
9.230340e-02
7.948050e-01
1.106630e-01
7.778210e-01
1.365270e-01
8.036850e-01
1.623510e-01
7.797910e-01
1.848050e-01
8.022450e-01
2.148680e-01
7.744090e-01
2.340740e-01
7.936140e-01
2.659230e-01
7.641010e-01
2.821330e-01
7.803110e-01
3.139800e-01
7.507750e-01
3.274980e-01
7.642930e-01
3.581040e-01
7.358830e-01
3.692500e-01
7.470290e-01
3.978200e-01
7.204890e-01
4.069120e-01
7.295820e-01
4.329860e-01
7.053430e-01
4.403250e-01
7.126820e-01
4.636940e-01
6.909440e-01
4.695550e-01
6.968050e-01
4.901900e-01
6.776000e-01
4.948190e-01
6.822290e-01
5.128100e-01
6.654760e-01
5.164230e-01
6.690890e-01
5.319400e-01
6.546350e-01
5.347240e-01
6.574190e-01
5.479770e-01
6.450690e-01
5.500910e-01
6.471840e-01
5.613110e-01
6.367250e-01
5.628900e-01
6.383050e-01
5.723100e-01
6.295220e-01
5.734670e-01
6.306800e-01
5.813120e-01
6.233640e-01
5.821410e-01
6.241930e-01
5.886190e-01
6.181500e-01
5.891950e-01
6.187270e-01
5.944950e-01
6.137830e-01
5.948830e-01
6.141710e-01
5.991710e-01
6.101700e-01
5.994210e-01
6.104190e-01
6.028400e-01
6.072280e-01
6.029920e-01
6.073790e-01
6.056640e-01
6.048860e-01
6.057480e-01
6.049700e-01
6.077710e-01
6.030830e-01
6.078140e-01
6.031250e-01
6.092640e-01
6.017710e-01
6.092830e-01
6.017900e-01
6.102190e-01
6.009160e-01
6.102250e-01
6.009220e-01
6.106840e-01
6.004940e-01
6.106850e-01
6.004960e-01
</DataArray>
<DataArray type="Float32" Name="V2" format="ascii">
6.904660e-01
7.900000e-01
6.911300e-01
7.905970e-01
6.911300e-01
7.905970e-01
6.931210e-01
7.923850e-01
6.931210e-01
7.923850e-01
6.964330e-01
7.953590e-01
6.964330e-01
7.953590e-01
7.010570e-01
7.995090e-01
7.010570e-01
7.995090e-01
7.069790e-01
8.048220e-01
7.069790e-01
8.048220e-01
7.141840e-01
8.112820e-01
7.141840e-01
8.112820e-01
7.226550e-01
8.188690e-01
7.226550e-01
8.188690e-01
7.323730e-01
8.275620e-01
7.323730e-01
8.275620e-01
7.433150e-01
8.373390e-01
7.433150e-01
8.373390e-01
7.554540e-01
8.481850e-01
7.554540e-01
8.481850e-01
7.687370e-01
8.600940e-01
7.687370e-01
8.600940e-01
7.830590e-01
8.730760e-01
7.830590e-01
8.730760e-01
7.982020e-01
8.871570e-01
7.982020e-01
8.871570e-01
8.137650e-01
9.023660e-01
8.137650e-01
9.023660e-01
8.293450e-01
9.184020e-01
8.293450e-01
9.184020e-01
8.444220e-01
9.337190e-01
8.444220e-01
9.337190e-01
8.586400e-01
9.482990e-01
8.586400e-01
9.482990e-01
8.718120e-01
9.619970e-01
8.718120e-01
9.619970e-01
8.838770e-01
9.746510e-01
8.838770e-01
9.746510e-01
8.948250e-01
9.861700e-01
8.948250e-01
9.861700e-01
9.046760e-01
9.965250e-01
9.046760e-01
9.965250e-01
9.134750e-01
1.005740e+00
9.134750e-01
1.005740e+00
9.212860e-01
1.013870e+00
9.212860e-01
1.013870e+00
9.281810e-01
1.021000e+00
9.281810e-01
1.021000e+00
9.342390e-01
1.027220e+00
9.342390e-01
1.027220e+00
9.395420e-01
1.032620e+00
9.395420e-01
1.032620e+00
9.441700e-01
1.037310e+00
9.441700e-01
1.037310e+00
9.482000e-01
1.041360e+00
9.482000e-01
1.041360e+00
9.517030e-01
1.044870e+00
9.517030e-01
1.044870e+00
9.547450e-01
1.047900e+00
9.547450e-01
1.047900e+00
9.573860e-01
1.050520e+00
9.573860e-01
1.050520e+00
9.596780e-01
1.052790e+00
9.596780e-01
1.052790e+00
9.616680e-01
1.054760e+00
9.616680e-01
1.054760e+00
9.633970e-01
1.056470e+00
9.633970e-01
1.056470e+00
9.648980e-01
1.057960e+00
9.648980e-01
1.057960e+00
9.662010e-01
1.059250e+00
9.662010e-01
1.059250e+00
9.673320e-01
1.060370e+00
9.673320e-01
1.060370e+00
9.683120e-01
1.061340e+00
9.683120e-01
1.061340e+00
9.691570e-01
1.062180e+00
9.691570e-01
1.062180e+00
9.698820e-01
1.062900e+00
9.698820e-01
1.062900e+00
9.704990e-01
1.063510e+00
9.704990e-01
1.063510e+00
9.710170e-01
1.064030e+00
9.710170e-01
1.064030e+00
9.714450e-01
1.064450e+00
9.714450e-01
1.064450e+00
9.717870e-01
1.064790e+00
9.717870e-01
1.064790e+00
9.720480e-01
1.065060e+00
9.720480e-01
1.065060e+00
9.722330e-01
1.065240e+00
9.722330e-01
1.065240e+00
9.723430e-01
1.065350e+00
9.723430e-01
1.065350e+00
9.723800e-01
1.065390e+00
</DataArray>
<DataArray type="Float32" Name="V3" format="ascii">
0.000000e+00
0.000000e+00
8.592850e-03
5.298410e-03
8.592850e-03
5.298410e-03
1.710530e-02
1.052200e-02
1.710530e-02
1.052200e-02
2.545720e-02
1.559610e-02
2.545720e-02
1.559610e-02
3.356910e-02
2.044640e-02
3.356910e-02
2.044640e-02
4.136200e-02
2.499940e-02
4.136200e-02
2.499940e-02
4.875750e-02
2.918340e-02
4.875750e-02
2.918340e-02
5.567710e-02
3.292970e-02
5.567710e-02
3.292970e-02
6.203950e-02
3.617610e-02
6.203950e-02
3.617610e-02
6.775680e-02
3.887070e-02
6.775680e-02
3.887070e-02
7.272710e-02
4.097890e-02
7.272710e-02
4.097890e-02
7.682450e-02
4.249010e-02
7.682450e-02
4.249010e-02
7.989230e-02
4.342130e-02
7.989230e-02
4.342130e-02
8.175720e-02
4.380530e-02
8.175720e-02
4.380530e-02
8.231050e-02
4.365250e-02
8.231050e-02
4.365250e-02
8.170860e-02
4.296100e-02
8.170860e-02
4.296100e-02
8.016510e-02
4.243040e-02
8.016510e-02
4.243040e-02
7.788500e-02
4.213950e-02
7.788500e-02
4.213950e-02
7.519330e-02
4.202810e-02
7.519330e-02
4.202810e-02
7.227760e-02
4.203750e-02
7.227760e-02
4.203750e-02
6.925460e-02
4.209670e-02
6.925460e-02
4.209670e-02
6.619890e-02
4.213560e-02
6.619890e-02
4.213560e-02
6.315720e-02
4.209310e-02
6.315720e-02
4.209310e-02
6.015770e-02
4.192170e-02
6.015770e-02
4.192170e-02
5.721620e-02
4.158820e-02
5.721620e-02
4.158820e-02
5.434060e-02
4.107340e-02
5.434060e-02
4.107340e-02
5.153350e-02
4.037010e-02
5.153350e-02
4.037010e-02
4.879440e-02
3.948040e-02
4.879440e-02
3.948040e-02
4.612070e-02
3.841300e-02
4.612070e-02
3.841300e-02
4.350880e-02
3.718140e-02
4.350880e-02
3.718140e-02
4.095410e-02
3.580140e-02
4.095410e-02
3.580140e-02
3.845190e-02
3.428990e-02
3.845190e-02
3.428990e-02
3.599720e-02
3.266370e-02
3.599720e-02
3.266370e-02
3.358530e-02
3.093890e-02
3.358530e-02
3.093890e-02
3.121130e-02
2.913030e-02
3.121130e-02
2.913030e-02
2.887070e-02
2.725110e-02
2.887070e-02
2.725110e-02
2.655940e-02
2.531310e-02
2.655940e-02
2.531310e-02
2.427350e-02
2.332640e-02
2.427350e-02
2.332640e-02
2.200930e-02
2.129980e-02
2.200930e-02
2.129980e-02
1.976370e-02
1.924060e-02
1.976370e-02
1.924060e-02
1.753380e-02
1.715510e-02
1.753380e-02
1.715510e-02
1.531690e-02
1.504850e-02
1.531690e-02
1.504850e-02
1.311080e-02
1.292510e-02
1.311080e-02
1.292510e-02
1.091340e-02
1.078850e-02
1.091340e-02
1.078850e-02
8.722970e-03
8.641840e-03
8.722970e-03
8.641840e-03
6.537800e-03
6.487550e-03
6.537800e-03
6.487550e-03
4.356470e-03
4.327890e-03
4.356470e-03
4.327890e-03
2.177620e-03
2.164790e-03
2.177620e-03
2.164790e-03
0.000000e+00
0.000000e+00
</DataArray>
<DataArray type="Float32" Name="V4" format="ascii">
9.000000e-01
1.000000e+00
9.000000e-01
1.000000e+00
9.000000e-01
1.000000e+00
9.000000e-01
1.000000e+00
9.000000e-01
1.000000e+00
9.000000e-01
1.000000e+00
9.000000e-01
1.000000e+00
9.000000e-01
1.000000e+00
9.000000e-01
1.000000e+00
9.000000e-01
1.000000e+00
9.000000e-01
1.000000e+00
9.000000e-01
1.000000e+00
9.000000e-01
1.000000e+00
9.000000e-01
1.000000e+00
9.000000e-01
1.000000e+00
9.000000e-01
1.000000e+00
9.000000e-01
1.000000e+00
9.000000e-01
1.000000e+00
9.000000e-01
1.000000e+00
9.000000e-01
1.000000e+00
9.000000e-01
1.000000e+00
9.000000e-01
1.000000e+00
9.000000e-01
1.000000e+00
9.000000e-01
1.000000e+00
9.000000e-01
1.000000e+00
9.000000e-01
1.000000e+00
9.000000e-01
1.000000e+00
9.000000e-01
1.000000e+00
9.000000e-01
1.000000e+00
9.000000e-01
1.000000e+00
9.000000e-01
1.000000e+00
9.000000e-01
1.000000e+00
9.000000e-01
1.000000e+00
9.000000e-01
1.000000e+00
9.000000e-01
1.000000e+00
9.000000e-01
1.000000e+00
9.000000e-01
1.000000e+00
9.000000e-01
1.000000e+00
9.000000e-01
1.000000e+00
9.000000e-01
1.000000e+00
9.000000e-01
1.000000e+00
9.000000e-01
1.000000e+00
9.000000e-01
1.000000e+00
9.000000e-01
1.000000e+00
9.000000e-01
1.000000e+00
9.000000e-01
1.000000e+00
9.000000e-01
1.000000e+00
9.000000e-01
1.000000e+00
9.000000e-01
1.000000e+00
9.000000e-01
1.000000e+00
9.000000e-01
1.000000e+00
9.000000e-01
1.000000e+00
9.000000e-01
1.000000e+00
9.000000e-01
1.000000e+00
9.000000e-01
1.000000e+00
9.000000e-01
1.000000e+00
9.000000e-01
1.000000e+00
9.000000e-01
1.000000e+00
9.000000e-01
1.000000e+00
9.000000e-01
1.000000e+00
9.000000e-01
1.000000e+00
9.000000e-01
1.000000e+00
9.000000e-01
1.000000e+00
9.000000e-01
1.000000e+00
9.000000e-01
1.000000e+00
9.000000e-01
1.000000e+00
9.000000e-01
1.000000e+00
9.000000e-01
1.000000e+00
9.000000e-01
1.000000e+00
9.000000e-01
1.000000e+00
9.000000e-01
1.000000e+00
9.000000e-01
1.000000e+00
9.000000e-01
1.000000e+00
9.000000e-01
1.000000e+00
9.000000e-01
1.000000e+00
9.000000e-01
1.000000e+00
9.000000e-01
1.000000e+00
9.000000e-01
1.000000e+00
9.000000e-01
1.000000e+00
9.000000e-01
1.000000e+00
9.000000e-01
1.000000e+00
9.000000e-01
1.000000e+00
9.000000e-01
1.000000e+00
9.000000e-01
1.000000e+00
9.000000e-01
1.000000e+00
9.000000e-01
1.000000e+00
9.000000e-01
1.000000e+00
9.000000e-01
1.000000e+00
9.000000e-01
1.000000e+00
9.000000e-01
1.000000e+00
9.000000e-01
1.000000e+00
9.000000e-01
1.000000e+00
9.000000e-01
1.000000e+00
9.000000e-01
1.000000e+00
9.000000e-01
1.000000e+00
9.000000e-01
1.000000e+00
</DataArray>
<DataArray type="Float32" Name="V5" format="ascii">
0.000000e+00
0.000000e+00
3.272490e-02
3.272490e-02
3.272490e-02
3.272490e-02
6.544980e-02
6.544980e-02
6.544980e-02
6.544980e-02
9.817480e-02
9.817480e-02
9.817480e-02
9.817480e-02
1.309000e-01
1.309000e-01
1.309000e-01
1.309000e-01
1.636250e-01
1.636250e-01
1.636250e-01
1.636250e-01
1.963500e-01
1.963500e-01
1.963500e-01
1.963500e-01
2.290740e-01
2.290740e-01
2.290740e-01
2.290740e-01
2.617990e-01
2.617990e-01
2.617990e-01
2.617990e-01
2.945240e-01
2.945240e-01
2.945240e-01
2.945240e-01
3.272490e-01
3.272490e-01
3.272490e-01
3.272490e-01
3.599740e-01
3.599740e-01
3.599740e-01
3.599740e-01
3.926990e-01
3.926990e-01
3.926990e-01
3.926990e-01
4.254240e-01
4.254240e-01
4.254240e-01
4.254240e-01
4.581490e-01
4.581490e-01
4.581490e-01
4.581490e-01
4.908740e-01
4.908740e-01
4.908740e-01
4.908740e-01
5.235990e-01
5.235990e-01
5.235990e-01
5.235990e-01
5.563240e-01
5.563240e-01
5.563240e-01
5.563240e-01
5.890490e-01
5.890490e-01
5.890490e-01
5.890490e-01
6.217740e-01
6.217740e-01
6.217740e-01
6.217740e-01
6.544980e-01
6.544980e-01
6.544980e-01
6.544980e-01
6.872230e-01
6.872230e-01
6.872230e-01
6.872230e-01
7.199480e-01
7.199480e-01
7.199480e-01
7.199480e-01
7.526730e-01
7.526730e-01
7.526730e-01
7.526730e-01
7.853980e-01
7.853980e-01
7.853980e-01
7.853980e-01
8.181230e-01
8.181230e-01
8.181230e-01
8.181230e-01
8.508480e-01
8.508480e-01
8.508480e-01
8.508480e-01
8.835730e-01
8.835730e-01
8.835730e-01
8.835730e-01
9.162980e-01
9.162980e-01
9.162980e-01
9.162980e-01
9.490230e-01
9.490230e-01
9.490230e-01
9.490230e-01
9.817480e-01
9.817480e-01
9.817480e-01
9.817480e-01
1.014470e+00
1.014470e+00
1.014470e+00
1.014470e+00
1.047200e+00
1.047200e+00
1.047200e+00
1.047200e+00
1.079920e+00
1.079920e+00
1.079920e+00
1.079920e+00
1.112650e+00
1.112650e+00
1.112650e+00
1.112650e+00
1.145370e+00
1.145370e+00
1.145370e+00
1.145370e+00
1.178100e+00
1.178100e+00
1.178100e+00
1.178100e+00
1.210820e+00
1.210820e+00
1.210820e+00
1.210820e+00
1.243550e+00
1.243550e+00
1.243550e+00
1.243550e+00
1.276270e+00
1.276270e+00
1.276270e+00
1.276270e+00
1.309000e+00
1.309000e+00
1.309000e+00
1.309000e+00
1.341720e+00
1.341720e+00
1.341720e+00
1.341720e+00
1.374450e+00
1.374450e+00
1.374450e+00
1.374450e+00
1.407170e+00
1.407170e+00
1.407170e+00
1.407170e+00
1.439900e+00
1.439900e+00
1.439900e+00
1.439900e+00
1.472620e+00
1.472620e+00
1.472620e+00
1.472620e+00
1.505350e+00
1.505350e+00
1.505350e+00
1.505350e+00
1.538070e+00
1.538070e+00
1.538070e+00
1.538070e+00
1.570800e+00
1.570800e+00
</DataArray>
</PointData>
</Piece></UnstructuredGrid>
</VTKFile>
