<?xml version="1.0"?>
<VTKFile type="UnstructuredGrid" version="0.1" byte_order="LittleEndian" compressor="vtkZLibDataCompressor">
<UnstructuredGrid>
<Piece NumberOfPoints="192" NumberOfCells="48">
<Points>
<DataArray type="Float32" NumberOfComponents="3" format="ascii">
0.000000e+00 4.065130e-01 0.000000e+00
0.000000e+00 4.600000e-01 0.000000e+00
4.253660e-02 4.065230e-01 0.000000e+00
4.252430e-02 4.600000e-01 0.000000e+00
4.253660e-02 4.065230e-01 0.000000e+00
4.252430e-02 4.600000e-01 0.000000e+00
8.507320e-02 4.065510e-01 0.000000e+00
8.504850e-02 4.600000e-01 0.000000e+00
8.507320e-02 4.065510e-01 0.000000e+00
8.504850e-02 4.600000e-01 0.000000e+00
1.276100e-01 4.065980e-01 0.000000e+00
1.275720e-01 4.600000e-01 0.000000e+00
1.276100e-01 4.065980e-01 0.000000e+00
1.275720e-01 4.600000e-01 0.000000e+00
1.701460e-01 4.066640e-01 0.000000e+00
1.700960e-01 4.600000e-01 0.000000e+00
1.701460e-01 4.066640e-01 0.000000e+00
1.700960e-01 4.600000e-01 0.000000e+00
2.126810e-01 4.067480e-01 0.000000e+00
2.126190e-01 4.600000e-01 0.000000e+00
2.126810e-01 4.067480e-01 0.000000e+00
2.126190e-01 4.600000e-01 0.000000e+00
2.552150e-01 4.068510e-01 0.000000e+00
2.551410e-01 4.600000e-01 0.000000e+00
2.552150e-01 4.068510e-01 0.000000e+00
2.551410e-01 4.600000e-01 0.000000e+00
2.977460e-01 4.069730e-01 0.000000e+00
2.976600e-01 4.600000e-01 0.000000e+00
2.977460e-01 4.069730e-01 0.000000e+00
2.976600e-01 4.600000e-01 0.000000e+00
3.402770e-01 4.071120e-01 0.000000e+00
3.401790e-01 4.600000e-01 0.000000e+00
3.402770e-01 4.071120e-01 0.000000e+00
3.401790e-01 4.600000e-01 0.000000e+00
3.828060e-01 4.072700e-01 0.000000e+00
3.826970e-01 4.600000e-01 0.000000e+00
3.828060e-01 4.072700e-01 0.000000e+00
3.826970e-01 4.600000e-01 0.000000e+00
4.253330e-01 4.074460e-01 0.000000e+00
4.252120e-01 4.600000e-01 0.000000e+00
4.253330e-01 4.074460e-01 0.000000e+00
4.252120e-01 4.600000e-01 0.000000e+00
4.678570e-01 4.076400e-01 0.000000e+00
4.677250e-01 4.600000e-01 0.000000e+00
4.678570e-01 4.076400e-01 0.000000e+00
4.677250e-01 4.600000e-01 0.000000e+00
5.103770e-01 4.078510e-01 0.000000e+00
5.102340e-01 4.600000e-01 0.000000e+00
5.103770e-01 4.078510e-01 0.000000e+00
5.102340e-01 4.600000e-01 0.000000e+00
5.528940e-01 4.080790e-01 0.000000e+00
5.527400e-01 4.600000e-01 0.000000e+00
5.528940e-01 4.080790e-01 0.000000e+00
5.527400e-01 4.600000e-01 0.000000e+00
5.954060e-01 4.083250e-01 0.000000e+00
5.952410e-01 4.600000e-01 0.000000e+00
5.954060e-01 4.083250e-01 0.000000e+00
5.952410e-01 4.600000e-01 0.000000e+00
6.379120e-01 4.085870e-01 0.000000e+00
6.377370e-01 4.600000e-01 0.000000e+00
6.379120e-01 4.085870e-01 0.000000e+00
6.377370e-01 4.600000e-01 0.000000e+00
6.804120e-01 4.088660e-01 0.000000e+00
6.802260e-01 4.600000e-01 0.000000e+00
6.804120e-01 4.088660e-01 0.000000e+00
6.802260e-01 4.600000e-01 0.000000e+00
7.229050e-01 4.091610e-01 0.000000e+00
7.227090e-01 4.600000e-01 0.000000e+00
7.229050e-01 4.091610e-01 0.000000e+00
7.227090e-01 4.600000e-01 0.000000e+00
7.653880e-01 4.094710e-01 0.000000e+00
7.651830e-01 4.600000e-01 0.000000e+00
7.653880e-01 4.094710e-01 0.000000e+00
7.651830e-01 4.600000e-01 0.000000e+00
8.078620e-01 4.097970e-01 0.000000e+00
8.076470e-01 4.600000e-01 0.000000e+00
8.078620e-01 4.097970e-01 0.000000e+00
8.076470e-01 4.600000e-01 0.000000e+00
8.503240e-01 4.101380e-01 0.000000e+00
8.500990e-01 4.600000e-01 0.000000e+00
8.503240e-01 4.101380e-01 0.000000e+00
8.500990e-01 4.600000e-01 0.000000e+00
8.927730e-01 4.104930e-01 0.000000e+00
8.925400e-01 4.600000e-01 0.000000e+00
8.927730e-01 4.104930e-01 0.000000e+00
8.925400e-01 4.600000e-01 0.000000e+00
9.352080e-01 4.108630e-01 0.000000e+00
9.349660e-01 4.600000e-01 0.000000e+00
9.352080e-01 4.108630e-01 0.000000e+00
9.349660e-01 4.600000e-01 0.000000e+00
9.776260e-01 4.112460e-01 0.000000e+00
9.773760e-01 4.600000e-01 0.000000e+00
9.776260e-01 4.112460e-01 0.000000e+00
9.773760e-01 4.600000e-01 0.000000e+00
1.020020e+00 4.116430e-01 0.000000e+00
1.019770e+00 4.600000e-01 0.000000e+00
1.020020e+00 4.116430e-01 0.000000e+00
1.019770e+00 4.600000e-01 0.000000e+00
1.062400e+00 4.120530e-01 0.000000e+00
1.062140e+00 4.600000e-01 0.000000e+00
1.062400e+00 4.120530e-01 0.000000e+00
1.062140e+00 4.600000e-01 0.000000e+00
1.104750e+00 4.124770e-01 0.000000e+00
1.104490e+00 4.600000e-01 0.000000e+00
1.104750e+00 4.124770e-01 0.000000e+00
1.104490e+00 4.600000e-01 0.000000e+00
1.147060e+00 4.129150e-01 0.000000e+00
1.146840e+00 4.600000e-01 0.000000e+00
1.147060e+00 4.129150e-01 0.000000e+00
1.146840e+00 4.600000e-01 0.000000e+00
1.189320e+00 4.133700e-01 0.000000e+00
1.189190e+00 4.600000e-01 0.000000e+00
1.189320e+00 4.133700e-01 0.000000e+00
1.189190e+00 4.600000e-01 0.000000e+00
1.231450e+00 4.138420e-01 0.000000e+00
1.231630e+00 4.600000e-01 0.000000e+00
1.231450e+00 4.138420e-01 0.000000e+00
1.231630e+00 4.600000e-01 0.000000e+00
1.273310e+00 4.143010e-01 0.000000e+00
1.274270e+00 4.600000e-01 0.000000e+00
1.273310e+00 4.143010e-01 0.000000e+00
1.274270e+00 4.600000e-01 0.000000e+00
1.314510e+00 4.145710e-01 0.000000e+00
1.317260e+00 4.600000e-01 0.000000e+00
1.314510e+00 4.145710e-01 0.000000e+00
1.317260e+00 4.600000e-01 0.000000e+00
1.354580e+00 4.139080e-01 0.000000e+00
1.360170e+00 4.600000e-01 0.000000e+00
1.354580e+00 4.139080e-01 0.000000e+00
1.360170e+00 4.600000e-01 0.000000e+00
1.393450e+00 4.104380e-01 0.000000e+00
1.401830e+00 4.560970e-01 0.000000e+00
1.393450e+00 4.104380e-01 0.000000e+00
1.401830e+00 4.560970e-01 0.000000e+00
1.430870e+00 4.030120e-01 0.000000e+00
1.443140e+00 4.472460e-01 0.000000e+00
1.430870e+00 4.030120e-01 0.000000e+00
1.443140e+00 4.472460e-01 0.000000e+00
1.466980e+00 3.915630e-01 0.000000e+00
1.483430e+00 4.338900e-01 0.000000e+00
1.466980e+00 3.915630e-01 0.000000e+00
1.483430e+00 4.338900e-01 0.000000e+00
1.501610e+00 3.762810e-01 0.000000e+00
1.522110e+00 4.162840e-01 0.000000e+00
1.501610e+00 3.762810e-01 0.000000e+00
1.522110e+00 4.162840e-01 0.000000e+00
1.534470e+00 3.574290e-01 0.000000e+00
1.558690e+00 3.947790e-01 0.000000e+00
1.534470e+00 3.574290e-01 0.000000e+00
1.558690e+00 3.947790e-01 0.000000e+00
1.565300e+00 3.352830e-01 0.000000e+00
1.592860e+00 3.697250e-01 0.000000e+00
1.565300e+00 3.352830e-01 0.000000e+00
1.592860e+00 3.697250e-01 0.000000e+00
1.593830e+00 3.101570e-01 0.000000e+00
1.624350e+00 3.415020e-01 0.000000e+00
1.593830e+00 3.101570e-01 0.000000e+00
1.624350e+00 3.415020e-01 0.000000e+00
1.619880e+00 2.823440e-01 0.000000e+00
1.652980e+00 3.104470e-01 0.000000e+00
1.619880e+00 2.823440e-01 0.000000e+00
1.652980e+00 3.104470e-01 0.000000e+00
1.643230e+00 2.521720e-01 0.000000e+00
1.678550e+00 2.769280e-01 0.000000e+00
1.643230e+00 2.521720e-01 0.000000e+00
1.678550e+00 2.769280e-01 0.000000e+00
1.663750e+00 2.199290e-01 0.000000e+00
1.700950e+00 2.412580e-01 0.000000e+00
1.663750e+00 2.199290e-01 0.000000e+00
1.700950e+00 2.412580e-01 0.000000e+00
1.681300e+00 1.859400e-01 0.000000e+00
1.720060e+00 2.037830e-01 0.000000e+00
1.681300e+00 1.859400e-01 0.000000e+00
1.720060e+00 2.037830e-01 0.000000e+00
1.695800e+00 1.504820e-01 0.000000e+00
1.735810e+00 1.647990e-01 0.000000e+00
1.695800e+00 1.504820e-01 0.000000e+00
1.735810e+00 1.647990e-01 0.000000e+00
1.707150e+00 1.138760e-01 0.000000e+00
1.748120e+00 1.246370e-01 0.000000e+00
1.707150e+00 1.138760e-01 0.000000e+00
1.748120e+00 1.246370e-01 0.000000e+00
1.715300e+00 7.639180e-02 0.000000e+00
1.756950e+00 8.357530e-02 0.000000e+00
1.715300e+00 7.639180e-02 0.000000e+00
1.756950e+00 8.357530e-02 0.000000e+00
1.720200e+00 3.834250e-02 0.000000e+00
1.762260e+00 4.193760e-02 0.000000e+00
1.720200e+00 3.834250e-02 0.000000e+00
1.762260e+00 4.193760e-02 0.000000e+00
1.721840e+00 -6.324680e-06 0.000000e+00
1.764030e+00 -6.479650e-06 0.000000e+00
</DataArray>
</Points>
<Cells>
<DataArray type="Int32" Name="connectivity" format="ascii">
0 1 3 2
4 5 7 6
8 9 11 10
12 13 15 14
16 17 19 18
20 21 23 22
24 25 27 26
28 29 31 30
32 33 35 34
36 37 39 38
40 41 43 42
44 45 47 46
48 49 51 50
52 53 55 54
56 57 59 58
60 61 63 62
64 65 67 66
68 69 71 70
72 73 75 74
76 77 79 78
80 81 83 82
84 85 87 86
88 89 91 90
92 93 95 94
96 97 99 98
100 101 103 102
104 105 107 106
108 109 111 110
112 113 115 114
116 117 119 118
120 121 123 122
124 125 127 126
128 129 131 130
132 133 135 134
136 137 139 138
140 141 143 142
144 145 147 146
148 149 151 150
152 153 155 154
156 157 159 158
160 161 163 162
164 165 167 166
168 169 171 170
172 173 175 174
176 177 179 178
180 181 183 182
184 185 187 186
188 189 191 190
</DataArray>
<DataArray type="Int32" Name="offsets" format="ascii">
4
8
12
16
20
24
28
32
36
40
44
48
52
56
60
64
68
72
76
80
84
88
92
96
100
104
108
112
116
120
124
128
132
136
140
144
148
152
156
160
164
168
172
176
180
184
188
192
</DataArray>
<DataArray type="UInt8" Name="types" format="ascii">
9
9
9
9
9
9
9
9
9
9
9
9
9
9
9
9
9
9
9
9
9
9
9
9
9
9
9
9
9
9
9
9
9
9
9
9
9
9
9
9
9
9
9
9
9
9
9
9
</DataArray>
</Cells>
<PointData>
<DataArray type="Float32" Name="V1" format="ascii">
6.963050e+00
3.702850e+00
6.966260e+00
3.706060e+00
6.967240e+00
3.705490e+00
6.974990e+00
3.713230e+00
6.976910e+00
3.712010e+00
6.990170e+00
3.725260e+00
6.992840e+00
3.723210e+00
7.011570e+00
3.741940e+00
7.015050e+00
3.739080e+00
7.039250e+00
3.763290e+00
7.043550e+00
3.759650e+00
7.073270e+00
3.789370e+00
7.078410e+00
3.784940e+00
7.113670e+00
3.820200e+00
7.119670e+00
3.814970e+00
7.160530e+00
3.855830e+00
7.167420e+00
3.849800e+00
7.213930e+00
3.896310e+00
7.221720e+00
3.889470e+00
7.273960e+00
3.941710e+00
7.282670e+00
3.934030e+00
7.340730e+00
3.992080e+00
7.350390e+00
3.983550e+00
7.414340e+00
4.047510e+00
7.424980e+00
4.038100e+00
7.494940e+00
4.108060e+00
7.506580e+00
4.097760e+00
7.582660e+00
4.173840e+00
7.595330e+00
4.162620e+00
7.677640e+00
4.244930e+00
7.691390e+00
4.232770e+00
7.780070e+00
4.321450e+00
7.794920e+00
4.308310e+00
7.890130e+00
4.403510e+00
7.906110e+00
4.389360e+00
8.008000e+00
4.491240e+00
8.025170e+00
4.476040e+00
8.133890e+00
4.584770e+00
8.152290e+00
4.568490e+00
8.268040e+00
4.684240e+00
8.287720e+00
4.666850e+00
8.410700e+00
4.789820e+00
8.431700e+00
4.771270e+00
8.562110e+00
4.901680e+00
8.584470e+00
4.881920e+00
8.722540e+00
5.019990e+00
8.746280e+00
4.999030e+00
8.892240e+00
5.144990e+00
8.917260e+00
5.122920e+00
9.071340e+00
5.277010e+00
9.097140e+00
5.254280e+00
9.259600e+00
5.416730e+00
9.284380e+00
5.394910e+00
9.455440e+00
5.565960e+00
9.473540e+00
5.550000e+00
9.653470e+00
5.729930e+00
9.648340e+00
5.734230e+00
9.837840e+00
5.923730e+00
9.765180e+00
5.986780e+00
9.967330e+00
6.188920e+00
9.723600e+00
6.400780e+00
9.951450e+00
6.628630e+00
9.357090e+00
7.145020e+00
9.656660e+00
7.444590e+00
8.911100e+00
8.124620e+00
9.155550e+00
8.369070e+00
8.814360e+00
8.654420e+00
9.032930e+00
8.872990e+00
8.920350e+00
8.972730e+00
9.137120e+00
9.189500e+00
9.114970e+00
9.209490e+00
9.326610e+00
9.421130e+00
9.342100e+00
9.407770e+00
9.545410e+00
9.611080e+00
9.575490e+00
9.584680e+00
9.767970e+00
9.777160e+00
9.802600e+00
9.746790e+00
9.981960e+00
9.926150e+00
1.001650e+01
9.895760e+00
1.018100e+01
1.006030e+01
1.021350e+01
1.003180e+01
1.036160e+01
1.017980e+01
1.039100e+01
1.015410e+01
1.052140e+01
1.028460e+01
1.054710e+01
1.026210e+01
1.065900e+01
1.037400e+01
1.068070e+01
1.035490e+01
1.077320e+01
1.044750e+01
1.079080e+01
1.043210e+01
1.086330e+01
1.050460e+01
1.087650e+01
1.049300e+01
1.092870e+01
1.054520e+01
1.093750e+01
1.053740e+01
1.096890e+01
1.056880e+01
1.097340e+01
1.056490e+01
1.098390e+01
1.057540e+01
</DataArray>
<DataArray type="Float32" Name="V2" format="ascii">
4.065130e-01
4.600000e-01
4.076970e-01
4.611450e-01
4.076970e-01
4.611450e-01
4.112450e-01
4.645780e-01
4.112450e-01
4.645780e-01
4.171480e-01
4.702890e-01
4.171480e-01
4.702890e-01
4.253930e-01
4.782670e-01
4.253930e-01
4.782670e-01
4.359600e-01
4.884910e-01
4.359600e-01
4.884910e-01
4.488240e-01
5.009370e-01
4.488240e-01
5.009370e-01
4.639520e-01
5.155750e-01
4.639520e-01
5.155750e-01
4.813110e-01
5.323710e-01
4.813110e-01
5.323710e-01
5.008560e-01
5.512840e-01
5.008560e-01
5.512840e-01
5.225420e-01
5.722680e-01
5.225420e-01
5.722680e-01
5.463150e-01
5.952730e-01
5.463150e-01
5.952730e-01
5.721180e-01
6.202430e-01
5.721180e-01
6.202430e-01
5.998880e-01
6.471170e-01
5.998880e-01
6.471170e-01
6.295570e-01
6.758300e-01
6.295570e-01
6.758300e-01
6.610510e-01
7.063110e-01
6.610510e-01
7.063110e-01
6.942940e-01
7.384850e-01
6.942940e-01
7.384850e-01
7.292030e-01
7.722720e-01
7.292030e-01
7.722720e-01
7.656900e-01
8.075890e-01
7.656900e-01
8.075890e-01
8.036640e-01
8.443460e-01
8.036640e-01
8.443460e-01
8.430280e-01
8.824500e-01
8.430280e-01
8.824500e-01
8.836850e-01
9.218060e-01
8.836850e-01
9.218060e-01
9.255280e-01
9.623120e-01
9.255280e-01
9.623120e-01
9.684510e-01
1.003860e+00
9.684510e-01
1.003860e+00
1.012340e+00
1.046350e+00
1.012340e+00
1.046350e+00
1.057080e+00
1.089670e+00
1.057080e+00
1.089670e+00
1.102560e+00
1.133700e+00
1.102560e+00
1.133700e+00
1.148640e+00
1.178340e+00
1.148640e+00
1.178340e+00
1.195190e+00
1.223480e+00
1.195190e+00
1.223480e+00
1.242040e+00
1.269060e+00
1.242040e+00
1.269060e+00
1.288890e+00
1.315080e+00
1.288890e+00
1.315080e+00
1.335210e+00
1.361530e+00
1.335210e+00
1.361530e+00
1.380060e+00
1.407940e+00
1.380060e+00
1.407940e+00
1.422390e+00
1.451310e+00
1.422390e+00
1.451310e+00
1.461550e+00
1.492120e+00
1.461550e+00
1.492120e+00
1.497820e+00
1.530270e+00
1.497820e+00
1.530270e+00
1.531300e+00
1.565550e+00
1.531300e+00
1.565550e+00
1.562020e+00
1.597840e+00
1.562020e+00
1.597840e+00
1.590000e+00
1.627170e+00
1.590000e+00
1.627170e+00
1.615240e+00
1.653540e+00
1.615240e+00
1.653540e+00
1.637760e+00
1.677000e+00
1.637760e+00
1.677000e+00
1.657560e+00
1.697580e+00
1.657560e+00
1.697580e+00
1.674680e+00
1.715330e+00
1.674680e+00
1.715330e+00
1.689130e+00
1.730280e+00
1.689130e+00
1.730280e+00
1.700930e+00
1.742470e+00
1.700930e+00
1.742470e+00
1.710090e+00
1.751920e+00
1.710090e+00
1.751920e+00
1.716620e+00
1.758650e+00
1.716620e+00
1.758650e+00
1.720540e+00
1.762690e+00
1.720540e+00
1.762690e+00
1.721840e+00
1.764030e+00
</DataArray>
<DataArray type="Float32" Name="V3" format="ascii">
0.000000e+00
0.000000e+00
2.921280e-02
2.745080e-02
2.921280e-02
2.745080e-02
5.830140e-02
5.478100e-02
5.830140e-02
5.478100e-02
8.714150e-02
8.187030e-02
8.714150e-02
8.187030e-02
1.156100e-01
1.085990e-01
1.156100e-01
1.085990e-01
1.435820e-01
1.348470e-01
1.435820e-01
1.348470e-01
1.709380e-01
1.604970e-01
1.709380e-01
1.604970e-01
1.975540e-01
1.854300e-01
1.975540e-01
1.854300e-01
2.233140e-01
2.095320e-01
2.233140e-01
2.095320e-01
2.480980e-01
2.326870e-01
2.480980e-01
2.326870e-01
2.717910e-01
2.547840e-01
2.717910e-01
2.547840e-01
2.942790e-01
2.757110e-01
2.942790e-01
2.757110e-01
3.154490e-01
2.953600e-01
3.154490e-01
2.953600e-01
3.351940e-01
3.136250e-01
3.351940e-01
3.136250e-01
3.534060e-01
3.304020e-01
3.534060e-01
3.304020e-01
3.699820e-01
3.455910e-01
3.699820e-01
3.455910e-01
3.848210e-01
3.590930e-01
3.848210e-01
3.590930e-01
3.978270e-01
3.708140e-01
3.978270e-01
3.708140e-01
4.089070e-01
3.806640e-01
4.089070e-01
3.806640e-01
4.179700e-01
3.885530e-01
4.179700e-01
3.885530e-01
4.249310e-01
3.943990e-01
4.249310e-01
3.943990e-01
4.297090e-01
3.981220e-01
4.297090e-01
3.981220e-01
4.322260e-01
3.996460e-01
4.322260e-01
3.996460e-01
4.324090e-01
3.989000e-01
4.324090e-01
3.989000e-01
4.301910e-01
3.958160e-01
4.301910e-01
3.958160e-01
4.255060e-01
3.903330e-01
4.255060e-01
3.903330e-01
4.182960e-01
3.823970e-01
4.182960e-01
3.823970e-01
4.085020e-01
3.719600e-01
4.085020e-01
3.719600e-01
3.960620e-01
3.589920e-01
3.960620e-01
3.589920e-01
3.809040e-01
3.434850e-01
3.809040e-01
3.434850e-01
3.629330e-01
3.254700e-01
3.629330e-01
3.254700e-01
3.420990e-01
3.049760e-01
3.420990e-01
3.049760e-01
3.188330e-01
2.817080e-01
3.188330e-01
2.817080e-01
2.948950e-01
2.585800e-01
2.948950e-01
2.585800e-01
2.714020e-01
2.371580e-01
2.714020e-01
2.371580e-01
2.487750e-01
2.170120e-01
2.487750e-01
2.170120e-01
2.269990e-01
1.978840e-01
2.269990e-01
1.978840e-01
2.060000e-01
1.795750e-01
2.060000e-01
1.795750e-01
1.856550e-01
1.619000e-01
1.856550e-01
1.619000e-01
1.658670e-01
1.447320e-01
1.658670e-01
1.447320e-01
1.465260e-01
1.279470e-01
1.465260e-01
1.279470e-01
1.275560e-01
1.114670e-01
1.275560e-01
1.114670e-01
1.088720e-01
9.521110e-02
1.088720e-01
9.521110e-02
9.042310e-02
7.913150e-02
9.042310e-02
7.913150e-02
7.214500e-02
6.317370e-02
7.214500e-02
6.317370e-02
5.400430e-02
4.731180e-02
5.400430e-02
4.731180e-02
3.595150e-02
3.150750e-02
3.595150e-02
3.150750e-02
1.796390e-02
1.574680e-02
1.796390e-02
1.574680e-02
0.000000e+00
0.000000e+00
</DataArray>
<DataArray type="Float32" Name="V4" format="ascii">
9.000000e-01
1.000000e+00
9.000000e-01
1.000000e+00
9.000000e-01
1.000000e+00
9.000000e-01
1.000000e+00
9.000000e-01
1.000000e+00
9.000000e-01
1.000000e+00
9.000000e-01
1.000000e+00
9.000000e-01
1.000000e+00
9.000000e-01
1.000000e+00
9.000000e-01
1.000000e+00
9.000000e-01
1.000000e+00
9.000000e-01
1.000000e+00
9.000000e-01
1.000000e+00
9.000000e-01
1.000000e+00
9.000000e-01
1.000000e+00
9.000000e-01
1.000000e+00
9.000000e-01
1.000000e+00
9.000000e-01
1.000000e+00
9.000000e-01
1.000000e+00
9.000000e-01
1.000000e+00
9.000000e-01
1.000000e+00
9.000000e-01
1.000000e+00
9.000000e-01
1.000000e+00
9.000000e-01
1.000000e+00
9.000000e-01
1.000000e+00
9.000000e-01
1.000000e+00
9.000000e-01
1.000000e+00
9.000000e-01
1.000000e+00
9.000000e-01
1.000000e+00
9.000000e-01
1.000000e+00
9.000000e-01
1.000000e+00
9.000000e-01
1.000000e+00
9.000000e-01
1.000000e+00
9.000000e-01
1.000000e+00
9.000000e-01
1.000000e+00
9.000000e-01
1.000000e+00
9.000000e-01
1.000000e+00
9.000000e-01
1.000000e+00
9.000000e-01
1.000000e+00
9.000000e-01
1.000000e+00
9.000000e-01
1.000000e+00
9.000000e-01
1.000000e+00
9.000000e-01
1.000000e+00
9.000000e-01
1.000000e+00
9.000000e-01
1.000000e+00
9.000000e-01
1.000000e+00
9.000000e-01
1.000000e+00
9.000000e-01
1.000000e+00
9.000000e-01
1.000000e+00
9.000000e-01
1.000000e+00
9.000000e-01
1.000000e+00
9.000000e-01
1.000000e+00
9.000000e-01
1.000000e+00
9.000000e-01
1.000000e+00
9.000000e-01
1.000000e+00
9.000000e-01
1.000000e+00
9.000000e-01
1.000000e+00
9.000000e-01
1.000000e+00
9.000000e-01
1.000000e+00
9.000000e-01
1.000000e+00
9.000000e-01
1.000000e+00
9.000000e-01
1.000000e+00
9.000000e-01
1.000000e+00
9.000000e-01
1.000000e+00
9.000000e-01
1.000000e+00
9.000000e-01
1.000000e+00
9.000000e-01
1.000000e+00
9.000000e-01
1.000000e+00
9.000000e-01
1.000000e+00
9.000000e-01
1.000000e+00
9.000000e-01
1.000000e+00
9.000000e-01
1.000000e+00
9.000000e-01
1.000000e+00
9.000000e-01
1.000000e+00
9.000000e-01
1.000000e+00
9.000000e-01
1.000000e+00
9.000000e-01
1.000000e+00
9.000000e-01
1.000000e+00
9.000000e-01
1.000000e+00
9.000000e-01
1.000000e+00
9.000000e-01
1.000000e+00
9.000000e-01
1.000000e+00
9.000000e-01
1.000000e+00
9.000000e-01
1.000000e+00
9.000000e-01
1.000000e+00
9.000000e-01
1.000000e+00
9.000000e-01
1.000000e+00
9.000000e-01
1.000000e+00
9.000000e-01
1.000000e+00
9.000000e-01
1.000000e+00
9.000000e-01
1.000000e+00
9.000000e-01
1.000000e+00
9.000000e-01
1.000000e+00
9.000000e-01
1.000000e+00
9.000000e-01
1.000000e+00
9.000000e-01
1.000000e+00
</DataArray>
<DataArray type="Float32" Name="V5" format="ascii">
0.000000e+00
0.000000e+00
3.272490e-02
3.272490e-02
3.272490e-02
3.272490e-02
6.544980e-02
6.544980e-02
6.544980e-02
6.544980e-02
9.817480e-02
9.817480e-02
9.817480e-02
9.817480e-02
1.309000e-01
1.309000e-01
1.309000e-01
1.309000e-01
1.636250e-01
1.636250e-01
1.636250e-01
1.636250e-01
1.963500e-01
1.963500e-01
1.963500e-01
1.963500e-01
2.290740e-01
2.290740e-01
2.290740e-01
2.290740e-01
2.617990e-01
2.617990e-01
2.617990e-01
2.617990e-01
2.945240e-01
2.945240e-01
2.945240e-01
2.945240e-01
3.272490e-01
3.272490e-01
3.272490e-01
3.272490e-01
3.599740e-01
3.599740e-01
3.599740e-01
3.599740e-01
3.926990e-01
3.926990e-01
3.926990e-01
3.926990e-01
4.254240e-01
4.254240e-01
4.254240e-01
4.254240e-01
4.581490e-01
4.581490e-01
4.581490e-01
4.581490e-01
4.908740e-01
4.908740e-01
4.908740e-01
4.908740e-01
5.235990e-01
5.235990e-01
5.235990e-01
5.235990e-01
5.563240e-01
5.563240e-01
5.563240e-01
5.563240e-01
5.890490e-01
5.890490e-01
5.890490e-01
5.890490e-01
6.217740e-01
6.217740e-01
6.217740e-01
6.217740e-01
6.544980e-01
6.544980e-01
6.544980e-01
6.544980e-01
6.872230e-01
6.872230e-01
6.872230e-01
6.872230e-01
7.199480e-01
7.199480e-01
7.199480e-01
7.199480e-01
7.526730e-01
7.526730e-01
7.526730e-01
7.526730e-01
7.853980e-01
7.853980e-01
7.853980e-01
7.853980e-01
8.181230e-01
8.181230e-01
8.181230e-01
8.181230e-01
8.508480e-01
8.508480e-01
8.508480e-01
8.508480e-01
8.835730e-01
8.835730e-01
8.835730e-01
8.835730e-01
9.162980e-01
9.162980e-01
9.162980e-01
9.162980e-01
9.490230e-01
9.490230e-01
9.490230e-01
9.490230e-01
9.817480e-01
9.817480e-01
9.817480e-01
9.817480e-01
1.014470e+00
1.014470e+00
1.014470e+00
1.014470e+00
1.047200e+00
1.047200e+00
1.047200e+00
1.047200e+00
1.079920e+00
1.079920e+00
1.079920e+00
1.079920e+00
1.112650e+00
1.112650e+00
1.112650e+00
1.112650e+00
1.145370e+00
1.145370e+00
1.145370e+00
1.145370e+00
1.178100e+00
1.178100e+00
1.178100e+00
1.178100e+00
1.210820e+00
1.210820e+00
1.210820e+00
1.210820e+00
1.243550e+00
1.243550e+00
1.243550e+00
1.243550e+00
1.276270e+00
1.276270e+00
1.276270e+00
1.276270e+00
1.309000e+00
1.309000e+00
1.309000e+00
1.309000e+00
1.341720e+00
1.341720e+00
1.341720e+00
1.341720e+00
1.374450e+00
1.374450e+00
1.374450e+00
1.374450e+00
1.407170e+00
1.407170e+00
1.407170e+00
1.407170e+00
1.439900e+00
1.439900e+00
1.439900e+00
1.439900e+00
1.472620e+00
1.472620e+00
1.472620e+00
1.472620e+00
1.505350e+00
1.505350e+00
1.505350e+00
1.505350e+00
1.538070e+00
1.538070e+00
1.538070e+00
1.538070e+00
1.570800e+00
1.570800e+00
</DataArray>
</PointData>
</Piece></UnstructuredGrid>
</VTKFile>
