<?xml version="1.0"?>
<VTKFile type="UnstructuredGrid" version="0.1" byte_order="LittleEndian" compressor="vtkZLibDataCompressor">
<UnstructuredGrid>
<Piece NumberOfPoints="192" NumberOfCells="48">
<Points>
<DataArray type="Float32" NumberOfComponents="3" format="ascii">
0.000000e+00 5.184610e-01 0.000000e+00
0.000000e+00 6.000000e-01 0.000000e+00
3.446270e-02 5.184740e-01 0.000000e+00
3.443580e-02 6.000000e-01 0.000000e+00
3.446270e-02 5.184740e-01 0.000000e+00
3.443580e-02 6.000000e-01 0.000000e+00
6.892430e-02 5.185120e-01 0.000000e+00
6.887040e-02 6.000000e-01 0.000000e+00
6.892430e-02 5.185120e-01 0.000000e+00
6.887040e-02 6.000000e-01 0.000000e+00
1.033840e-01 5.185760e-01 0.000000e+00
1.033030e-01 6.000000e-01 0.000000e+00
1.033840e-01 5.185760e-01 0.000000e+00
1.033030e-01 6.000000e-01 0.000000e+00
1.378390e-01 5.186640e-01 0.000000e+00
1.377320e-01 6.000000e-01 0.000000e+00
1.378390e-01 5.186640e-01 0.000000e+00
1.377320e-01 6.000000e-01 0.000000e+00
1.722900e-01 5.187790e-01 0.000000e+00
1.721560e-01 6.000000e-01 0.000000e+00
1.722900e-01 5.187790e-01 0.000000e+00
1.721560e-01 6.000000e-01 0.000000e+00
2.067350e-01 5.189180e-01 0.000000e+00
2.065750e-01 6.000000e-01 0.000000e+00
2.067350e-01 5.189180e-01 0.000000e+00
2.065750e-01 6.000000e-01 0.000000e+00
2.411720e-01 5.190830e-01 0.000000e+00
2.409850e-01 6.000000e-01 0.000000e+00
2.411720e-01 5.190830e-01 0.000000e+00
2.409850e-01 6.000000e-01 0.000000e+00
2.756010e-01 5.192730e-01 0.000000e+00
2.753880e-01 6.000000e-01 0.000000e+00
2.756010e-01 5.192730e-01 0.000000e+00
2.753880e-01 6.000000e-01 0.000000e+00
3.100210e-01 5.194880e-01 0.000000e+00
3.097820e-01 6.000000e-01 0.000000e+00
3.100210e-01 5.194880e-01 0.000000e+00
3.097820e-01 6.000000e-01 0.000000e+00
3.444310e-01 5.197280e-01 0.000000e+00
3.441660e-01 6.000000e-01 0.000000e+00
3.444310e-01 5.197280e-01 0.000000e+00
3.441660e-01 6.000000e-01 0.000000e+00
3.788280e-01 5.199930e-01 0.000000e+00
3.785370e-01 6.000000e-01 0.000000e+00
3.788280e-01 5.199930e-01 0.000000e+00
3.785370e-01 6.000000e-01 0.000000e+00
4.132130e-01 5.202830e-01 0.000000e+00
4.128960e-01 6.000000e-01 0.000000e+00
4.132130e-01 5.202830e-01 0.000000e+00
4.128960e-01 6.000000e-01 0.000000e+00
4.475830e-01 5.205970e-01 0.000000e+00
4.472410e-01 6.000000e-01 0.000000e+00
4.475830e-01 5.205970e-01 0.000000e+00
4.472410e-01 6.000000e-01 0.000000e+00
4.819390e-01 5.209360e-01 0.000000e+00
4.815700e-01 6.000000e-01 0.000000e+00
4.819390e-01 5.209360e-01 0.000000e+00
4.815700e-01 6.000000e-01 0.000000e+00
5.162800e-01 5.213010e-01 0.000000e+00
5.158830e-01 6.000000e-01 0.000000e+00
5.162800e-01 5.213010e-01 0.000000e+00
5.158830e-01 6.000000e-01 0.000000e+00
5.506050e-01 5.216930e-01 0.000000e+00
5.501800e-01 6.000000e-01 0.000000e+00
5.506050e-01 5.216930e-01 0.000000e+00
5.501800e-01 6.000000e-01 0.000000e+00
5.849120e-01 5.221140e-01 0.000000e+00
5.844650e-01 6.000000e-01 0.000000e+00
5.849120e-01 5.221140e-01 0.000000e+00
5.844650e-01 6.000000e-01 0.000000e+00
6.191970e-01 5.225700e-01 0.000000e+00
6.187460e-01 6.000000e-01 0.000000e+00
6.191970e-01 5.225700e-01 0.000000e+00
6.187460e-01 6.000000e-01 0.000000e+00
6.534440e-01 5.230700e-01 0.000000e+00
6.530500e-01 6.000000e-01 0.000000e+00
6.534440e-01 5.230700e-01 0.000000e+00
6.530500e-01 6.000000e-01 0.000000e+00
6.876120e-01 5.236190e-01 0.000000e+00
6.874260e-01 6.000000e-01 0.000000e+00
6.876120e-01 5.236190e-01 0.000000e+00
6.874260e-01 6.000000e-01 0.000000e+00
7.216070e-01 5.242030e-01 0.000000e+00
7.219670e-01 6.000000e-01 0.000000e+00
7.216070e-01 5.242030e-01 0.000000e+00
7.219670e-01 6.000000e-01 0.000000e+00
7.552360e-01 5.247380e-01 0.000000e+00
7.568020e-01 6.000000e-01 0.000000e+00
7.552360e-01 5.247380e-01 0.000000e+00
7.568020e-01 6.000000e-01 0.000000e+00
7.881910e-01 5.249460e-01 0.000000e+00
7.920350e-01 6.000000e-01 0.000000e+00
7.881910e-01 5.249460e-01 0.000000e+00
7.920350e-01 6.000000e-01 0.000000e+00
8.203030e-01 5.242980e-01 0.000000e+00
8.274810e-01 5.999390e-01 0.000000e+00
8.203030e-01 5.242980e-01 0.000000e+00
8.274810e-01 5.999390e-01 0.000000e+00
8.516220e-01 5.219470e-01 0.000000e+00
8.627260e-01 5.970140e-01 0.000000e+00
8.516220e-01 5.219470e-01 0.000000e+00
8.627260e-01 5.970140e-01 0.000000e+00
8.819670e-01 5.174470e-01 0.000000e+00
8.979590e-01 5.910280e-01 0.000000e+00
8.819670e-01 5.174470e-01 0.000000e+00
8.979590e-01 5.910280e-01 0.000000e+00
9.115390e-01 5.105230e-01 0.000000e+00
9.327980e-01 5.821340e-01 0.000000e+00
9.115390e-01 5.105230e-01 0.000000e+00
9.327980e-01 5.821340e-01 0.000000e+00
9.403420e-01 5.011770e-01 0.000000e+00
9.668620e-01 5.703940e-01 0.000000e+00
9.403420e-01 5.011770e-01 0.000000e+00
9.668620e-01 5.703940e-01 0.000000e+00
9.683040e-01 4.894910e-01 0.000000e+00
9.998550e-01 5.559580e-01 0.000000e+00
9.683040e-01 4.894910e-01 0.000000e+00
9.998550e-01 5.559580e-01 0.000000e+00
9.953220e-01 4.755860e-01 0.000000e+00
1.031560e+00 5.390200e-01 0.000000e+00
9.953220e-01 4.755860e-01 0.000000e+00
1.031560e+00 5.390200e-01 0.000000e+00
1.021290e+00 4.596010e-01 0.000000e+00
1.061820e+00 5.197950e-01 0.000000e+00
1.021290e+00 4.596010e-01 0.000000e+00
1.061820e+00 5.197950e-01 0.000000e+00
1.046130e+00 4.416790e-01 0.000000e+00
1.090550e+00 4.984850e-01 0.000000e+00
1.046130e+00 4.416790e-01 0.000000e+00
1.090550e+00 4.984850e-01 0.000000e+00
1.069740e+00 4.219810e-01 0.000000e+00
1.117660e+00 4.753020e-01 0.000000e+00
1.069740e+00 4.219810e-01 0.000000e+00
1.117660e+00 4.753020e-01 0.000000e+00
1.092060e+00 4.006410e-01 0.000000e+00
1.143110e+00 4.504170e-01 0.000000e+00
1.092060e+00 4.006410e-01 0.000000e+00
1.143110e+00 4.504170e-01 0.000000e+00
1.113020e+00 3.778180e-01 0.000000e+00
1.166860e+00 4.240130e-01 0.000000e+00
1.113020e+00 3.778180e-01 0.000000e+00
1.166860e+00 4.240130e-01 0.000000e+00
1.132580e+00 3.536330e-01 0.000000e+00
1.188900e+00 3.962310e-01 0.000000e+00
1.132580e+00 3.536330e-01 0.000000e+00
1.188900e+00 3.962310e-01 0.000000e+00
1.150680e+00 3.282320e-01 0.000000e+00
1.209210e+00 3.672290e-01 0.000000e+00
1.150680e+00 3.282320e-01 0.000000e+00
1.209210e+00 3.672290e-01 0.000000e+00
1.167310e+00 3.017240e-01 0.000000e+00
1.227770e+00 3.371240e-01 0.000000e+00
1.167310e+00 3.017240e-01 0.000000e+00
1.227770e+00 3.371240e-01 0.000000e+00
1.182420e+00 2.742430e-01 0.000000e+00
1.244580e+00 3.060560e-01 0.000000e+00
1.182420e+00 2.742430e-01 0.000000e+00
1.244580e+00 3.060560e-01 0.000000e+00
1.196000e+00 2.458840e-01 0.000000e+00
1.259640e+00 2.741210e-01 0.000000e+00
1.196000e+00 2.458840e-01 0.000000e+00
1.259640e+00 2.741210e-01 0.000000e+00
1.208020e+00 2.167740e-01 0.000000e+00
1.272930e+00 2.414470e-01 0.000000e+00
1.208020e+00 2.167740e-01 0.000000e+00
1.272930e+00 2.414470e-01 0.000000e+00
1.218470e+00 1.869980e-01 0.000000e+00
1.284460e+00 2.081190e-01 0.000000e+00
1.218470e+00 1.869980e-01 0.000000e+00
1.284460e+00 2.081190e-01 0.000000e+00
1.227330e+00 1.566730e-01 0.000000e+00
1.294210e+00 1.742560e-01 0.000000e+00
1.227330e+00 1.566730e-01 0.000000e+00
1.294210e+00 1.742560e-01 0.000000e+00
1.234600e+00 1.258800e-01 0.000000e+00
1.302200e+00 1.399320e-01 0.000000e+00
1.234600e+00 1.258800e-01 0.000000e+00
1.302200e+00 1.399320e-01 0.000000e+00
1.240250e+00 9.473060e-02 0.000000e+00
1.308410e+00 1.052630e-01 0.000000e+00
1.240250e+00 9.473060e-02 0.000000e+00
1.308410e+00 1.052630e-01 0.000000e+00
1.244300e+00 6.329950e-02 0.000000e+00
1.312850e+00 7.031690e-02 0.000000e+00
1.244300e+00 6.329950e-02 0.000000e+00
1.312850e+00 7.031690e-02 0.000000e+00
1.246730e+00 3.169740e-02 0.000000e+00
1.315520e+00 3.520540e-02 0.000000e+00
1.246730e+00 3.169740e-02 0.000000e+00
1.315520e+00 3.520540e-02 0.000000e+00
1.247540e+00 -4.582470e-06 0.000000e+00
1.316400e+00 -4.835420e-06 0.000000e+00
</DataArray>
</Points>
<Cells>
<DataArray type="Int32" Name="connectivity" format="ascii">
0 1 3 2
4 5 7 6
8 9 11 10
12 13 15 14
16 17 19 18
20 21 23 22
24 25 27 26
28 29 31 30
32 33 35 34
36 37 39 38
40 41 43 42
44 45 47 46
48 49 51 50
52 53 55 54
56 57 59 58
60 61 63 62
64 65 67 66
68 69 71 70
72 73 75 74
76 77 79 78
80 81 83 82
84 85 87 86
88 89 91 90
92 93 95 94
96 97 99 98
100 101 103 102
104 105 107 106
108 109 111 110
112 113 115 114
116 117 119 118
120 121 123 122
124 125 127 126
128 129 131 130
132 133 135 134
136 137 139 138
140 141 143 142
144 145 147 146
148 149 151 150
152 153 155 154
156 157 159 158
160 161 163 162
164 165 167 166
168 169 171 170
172 173 175 174
176 177 179 178
180 181 183 182
184 185 187 186
188 189 191 190
</DataArray>
<DataArray type="Int32" Name="offsets" format="ascii">
4
8
12
16
20
24
28
32
36
40
44
48
52
56
60
64
68
72
76
80
84
88
92
96
100
104
108
112
116
120
124
128
132
136
140
144
148
152
156
160
164
168
172
176
180
184
188
192
</DataArray>
<DataArray type="UInt8" Name="types" format="ascii">
9
9
9
9
9
9
9
9
9
9
9
9
9
9
9
9
9
9
9
9
9
9
9
9
9
9
9
9
9
9
9
9
9
9
9
9
9
9
9
9
9
9
9
9
9
9
9
9
</DataArray>
</Cells>
<PointData>
<DataArray type="Float32" Name="V1" format="ascii">
2.237400e+00
8.850690e-02
2.239260e+00
9.036770e-02
2.239630e+00
9.041990e-02
2.244030e+00
9.482230e-02
2.244640e+00
9.472520e-02
2.252300e+00
1.023890e-01
2.253010e+00
1.020420e-01
2.263890e+00
1.129190e-01
2.264740e+00
1.123550e-01
2.278820e+00
1.264350e-01
2.279830e+00
1.256630e-01
2.297120e+00
1.429530e-01
2.298320e+00
1.419770e-01
2.318830e+00
1.624900e-01
2.320220e+00
1.613090e-01
2.343970e+00
1.850670e-01
2.345560e+00
1.836740e-01
2.372600e+00
2.107060e-01
2.374400e+00
2.090910e-01
2.404740e+00
2.394300e-01
2.406780e+00
2.375800e-01
2.440470e+00
2.712630e-01
2.442770e+00
2.691560e-01
2.479840e+00
3.062270e-01
2.482450e+00
3.038250e-01
2.522950e+00
3.443250e-01
2.525930e+00
3.415680e-01
2.569900e+00
3.855320e-01
2.573350e+00
3.823370e-01
2.620780e+00
4.297660e-01
2.624810e+00
4.260480e-01
2.675620e+00
4.768630e-01
2.680200e+00
4.726560e-01
2.734160e+00
5.266190e-01
2.738750e+00
5.224430e-01
2.795350e+00
5.790470e-01
2.797860e+00
5.768430e-01
2.856280e+00
6.352620e-01
2.850690e+00
6.405200e-01
2.910090e+00
6.999230e-01
2.881700e+00
7.259100e-01
2.942910e+00
7.871260e-01
2.860280e+00
8.618980e-01
2.931220e+00
9.328370e-01
2.737040e+00
1.107000e+00
2.846530e+00
1.216490e+00
2.454530e+00
1.575660e+00
2.658520e+00
1.779640e+00
2.219820e+00
2.219430e+00
2.343620e+00
2.343230e+00
2.130260e+00
2.522230e+00
2.214660e+00
2.606630e+00
2.105900e+00
2.705320e+00
2.189680e+00
2.789100e+00
2.139000e+00
2.835750e+00
2.222580e+00
2.919340e+00
2.206760e+00
2.933960e+00
2.288410e+00
3.015620e+00
2.293050e+00
3.011390e+00
2.371610e+00
3.089950e+00
2.387660e+00
3.075220e+00
2.462390e+00
3.149950e+00
2.484220e+00
3.129900e+00
2.554700e+00
3.200380e+00
2.578850e+00
3.178180e+00
2.644800e+00
3.244130e+00
2.669230e+00
3.221680e+00
2.730560e+00
3.283010e+00
2.754100e+00
3.261400e+00
2.810740e+00
3.318040e+00
2.832720e+00
3.297850e+00
2.884730e+00
3.349860e+00
2.904880e+00
3.331380e+00
2.952280e+00
3.378790e+00
2.970440e+00
3.362120e+00
3.013340e+00
3.405020e+00
3.029530e+00
3.390180e+00
3.068000e+00
3.428640e+00
3.082250e+00
3.415570e+00
3.116390e+00
3.449710e+00
3.128790e+00
3.438340e+00
3.158680e+00
3.468230e+00
3.169310e+00
3.458480e+00
3.195030e+00
3.484210e+00
3.203980e+00
3.476010e+00
3.225610e+00
3.497640e+00
3.232950e+00
3.490920e+00
3.250560e+00
3.508530e+00
3.256350e+00
3.503230e+00
3.269990e+00
3.516860e+00
3.274290e+00
3.512930e+00
3.284000e+00
3.522640e+00
3.286840e+00
3.520040e+00
3.292660e+00
3.525850e+00
3.294070e+00
3.524550e+00
3.296010e+00
3.526490e+00
</DataArray>
<DataArray type="Float32" Name="V2" format="ascii">
5.184610e-01
6.000000e-01
5.193240e-01
6.008050e-01
5.193240e-01
6.008050e-01
5.219100e-01
6.032200e-01
5.219100e-01
6.032200e-01
5.262120e-01
6.072360e-01
5.262120e-01
6.072360e-01
5.322190e-01
6.128450e-01
5.322190e-01
6.128450e-01
5.399150e-01
6.200290e-01
5.399150e-01
6.200290e-01
5.492790e-01
6.287720e-01
5.492790e-01
6.287720e-01
5.602870e-01
6.390480e-01
5.602870e-01
6.390480e-01
5.729100e-01
6.508310e-01
5.729100e-01
6.508310e-01
5.871130e-01
6.640890e-01
5.871130e-01
6.640890e-01
6.028600e-01
6.787860e-01
6.028600e-01
6.787860e-01
6.201070e-01
6.948830e-01
6.201070e-01
6.948830e-01
6.388080e-01
7.123360e-01
6.388080e-01
7.123360e-01
6.589140e-01
7.310980e-01
6.589140e-01
7.310980e-01
6.803700e-01
7.511170e-01
6.803700e-01
7.511170e-01
7.031190e-01
7.723390e-01
7.031190e-01
7.723390e-01
7.271020e-01
7.947060e-01
7.271020e-01
7.947060e-01
7.522540e-01
8.181580e-01
7.522540e-01
8.181580e-01
7.785090e-01
8.426390e-01
7.785090e-01
8.426390e-01
8.057930e-01
8.680950e-01
8.057930e-01
8.680950e-01
8.340060e-01
8.944900e-01
8.340060e-01
8.944900e-01
8.629970e-01
9.218170e-01
8.629970e-01
9.218170e-01
8.924810e-01
9.500980e-01
8.924810e-01
9.500980e-01
9.219400e-01
9.793470e-01
9.219400e-01
9.793470e-01
9.507770e-01
1.009340e+00
9.507770e-01
1.009340e+00
9.783670e-01
1.037790e+00
9.783670e-01
1.037790e+00
1.004270e+00
1.064810e+00
1.004270e+00
1.064810e+00
1.028500e+00
1.090360e+00
1.028500e+00
1.090360e+00
1.051120e+00
1.114300e+00
1.051120e+00
1.114300e+00
1.072200e+00
1.136560e+00
1.072200e+00
1.136560e+00
1.091800e+00
1.157170e+00
1.091800e+00
1.157170e+00
1.109980e+00
1.176190e+00
1.109980e+00
1.176190e+00
1.126820e+00
1.193690e+00
1.126820e+00
1.193690e+00
1.142350e+00
1.209740e+00
1.142350e+00
1.209740e+00
1.156640e+00
1.224440e+00
1.156640e+00
1.224440e+00
1.169740e+00
1.237850e+00
1.169740e+00
1.237850e+00
1.181700e+00
1.250040e+00
1.181700e+00
1.250040e+00
1.192550e+00
1.261060e+00
1.192550e+00
1.261060e+00
1.202350e+00
1.270980e+00
1.202350e+00
1.270980e+00
1.211120e+00
1.279830e+00
1.211120e+00
1.279830e+00
1.218890e+00
1.287670e+00
1.218890e+00
1.287670e+00
1.225690e+00
1.294500e+00
1.225690e+00
1.294500e+00
1.231540e+00
1.300380e+00
1.231540e+00
1.300380e+00
1.236460e+00
1.305310e+00
1.236460e+00
1.305310e+00
1.240470e+00
1.309330e+00
1.240470e+00
1.309330e+00
1.243570e+00
1.312430e+00
1.243570e+00
1.312430e+00
1.245780e+00
1.314640e+00
1.245780e+00
1.314640e+00
1.247100e+00
1.315960e+00
1.247100e+00
1.315960e+00
1.247540e+00
1.316400e+00
</DataArray>
<DataArray type="Float32" Name="V3" format="ascii">
0.000000e+00
0.000000e+00
1.748030e-02
1.478590e-02
1.748030e-02
1.478590e-02
3.486440e-02
2.948110e-02
3.486440e-02
2.948110e-02
5.205640e-02
4.399510e-02
5.205640e-02
4.399510e-02
6.896070e-02
5.823780e-02
6.896070e-02
5.823780e-02
8.548220e-02
7.211930e-02
8.548220e-02
7.211930e-02
1.015270e-01
8.555090e-02
1.015270e-01
8.555090e-02
1.170010e-01
9.844420e-02
1.170010e-01
9.844420e-02
1.318130e-01
1.107130e-01
1.318130e-01
1.107130e-01
1.458730e-01
1.222720e-01
1.458730e-01
1.222720e-01
1.590910e-01
1.330370e-01
1.590910e-01
1.330370e-01
1.713800e-01
1.429250e-01
1.713800e-01
1.429250e-01
1.826550e-01
1.518560e-01
1.826550e-01
1.518560e-01
1.928330e-01
1.597510e-01
1.928330e-01
1.597510e-01
2.018340e-01
1.665340e-01
2.018340e-01
1.665340e-01
2.095790e-01
1.721300e-01
2.095790e-01
1.721300e-01
2.159910e-01
1.764700e-01
2.159910e-01
1.764700e-01
2.209970e-01
1.794880e-01
2.209970e-01
1.794880e-01
2.245190e-01
1.811260e-01
2.245190e-01
1.811260e-01
2.264730e-01
1.813420e-01
2.264730e-01
1.813420e-01
2.267610e-01
1.801150e-01
2.267610e-01
1.801150e-01
2.252590e-01
1.774520e-01
2.252590e-01
1.774520e-01
2.218330e-01
1.733870e-01
2.218330e-01
1.733870e-01
2.164240e-01
1.679230e-01
2.164240e-01
1.679230e-01
2.093070e-01
1.608960e-01
2.093070e-01
1.608960e-01
2.012120e-01
1.540150e-01
2.012120e-01
1.540150e-01
1.924840e-01
1.477070e-01
1.924840e-01
1.477070e-01
1.836350e-01
1.417650e-01
1.836350e-01
1.417650e-01
1.748340e-01
1.360640e-01
1.748340e-01
1.360640e-01
1.661340e-01
1.304850e-01
1.661340e-01
1.304850e-01
1.575360e-01
1.249250e-01
1.575360e-01
1.249250e-01
1.490210e-01
1.193070e-01
1.490210e-01
1.193070e-01
1.405580e-01
1.135720e-01
1.405580e-01
1.135720e-01
1.321210e-01
1.076840e-01
1.321210e-01
1.076840e-01
1.236790e-01
1.016150e-01
1.236790e-01
1.016150e-01
1.152130e-01
9.535720e-02
1.152130e-01
9.535720e-02
1.067010e-01
8.890130e-02
1.067010e-01
8.890130e-02
9.813670e-02
8.225400e-02
9.813670e-02
8.225400e-02
8.950520e-02
7.541840e-02
8.950520e-02
7.541840e-02
8.080780e-02
6.840890e-02
8.080780e-02
6.840890e-02
7.203830e-02
6.123460e-02
7.203830e-02
6.123460e-02
6.320390e-02
5.391460e-02
6.320390e-02
5.391460e-02
5.430340e-02
4.646090e-02
5.430340e-02
4.646090e-02
4.534810e-02
3.889550e-02
4.534810e-02
3.889550e-02
3.634020e-02
3.123180e-02
3.634020e-02
3.123180e-02
2.729370e-02
2.349310e-02
2.729370e-02
2.349310e-02
1.821280e-02
1.569380e-02
1.821280e-02
1.569380e-02
9.113210e-03
7.857840e-03
9.113210e-03
7.857840e-03
0.000000e+00
0.000000e+00
</DataArray>
<DataArray type="Float32" Name="V4" format="ascii">
9.000000e-01
1.000000e+00
9.000000e-01
1.000000e+00
9.000000e-01
1.000000e+00
9.000000e-01
1.000000e+00
9.000000e-01
1.000000e+00
9.000000e-01
1.000000e+00
9.000000e-01
1.000000e+00
9.000000e-01
1.000000e+00
9.000000e-01
1.000000e+00
9.000000e-01
1.000000e+00
9.000000e-01
1.000000e+00
9.000000e-01
1.000000e+00
9.000000e-01
1.000000e+00
9.000000e-01
1.000000e+00
9.000000e-01
1.000000e+00
9.000000e-01
1.000000e+00
9.000000e-01
1.000000e+00
9.000000e-01
1.000000e+00
9.000000e-01
1.000000e+00
9.000000e-01
1.000000e+00
9.000000e-01
1.000000e+00
9.000000e-01
1.000000e+00
9.000000e-01
1.000000e+00
9.000000e-01
1.000000e+00
9.000000e-01
1.000000e+00
9.000000e-01
1.000000e+00
9.000000e-01
1.000000e+00
9.000000e-01
1.000000e+00
9.000000e-01
1.000000e+00
9.000000e-01
1.000000e+00
9.000000e-01
1.000000e+00
9.000000e-01
1.000000e+00
9.000000e-01
1.000000e+00
9.000000e-01
1.000000e+00
9.000000e-01
1.000000e+00
9.000000e-01
1.000000e+00
9.000000e-01
1.000000e+00
9.000000e-01
1.000000e+00
9.000000e-01
1.000000e+00
9.000000e-01
1.000000e+00
9.000000e-01
1.000000e+00
9.000000e-01
1.000000e+00
9.000000e-01
1.000000e+00
9.000000e-01
1.000000e+00
9.000000e-01
1.000000e+00
9.000000e-01
1.000000e+00
9.000000e-01
1.000000e+00
9.000000e-01
1.000000e+00
9.000000e-01
1.000000e+00
9.000000e-01
1.000000e+00
9.000000e-01
1.000000e+00
9.000000e-01
1.000000e+00
9.000000e-01
1.000000e+00
9.000000e-01
1.000000e+00
9.000000e-01
1.000000e+00
9.000000e-01
1.000000e+00
9.000000e-01
1.000000e+00
9.000000e-01
1.000000e+00
9.000000e-01
1.000000e+00
9.000000e-01
1.000000e+00
9.000000e-01
1.000000e+00
9.000000e-01
1.000000e+00
9.000000e-01
1.000000e+00
9.000000e-01
1.000000e+00
9.000000e-01
1.000000e+00
9.000000e-01
1.000000e+00
9.000000e-01
1.000000e+00
9.000000e-01
1.000000e+00
9.000000e-01
1.000000e+00
9.000000e-01
1.000000e+00
9.000000e-01
1.000000e+00
9.000000e-01
1.000000e+00
9.000000e-01
1.000000e+00
9.000000e-01
1.000000e+00
9.000000e-01
1.000000e+00
9.000000e-01
1.000000e+00
9.000000e-01
1.000000e+00
9.000000e-01
1.000000e+00
9.000000e-01
1.000000e+00
9.000000e-01
1.000000e+00
9.000000e-01
1.000000e+00
9.000000e-01
1.000000e+00
9.000000e-01
1.000000e+00
9.000000e-01
1.000000e+00
9.000000e-01
1.000000e+00
9.000000e-01
1.000000e+00
9.000000e-01
1.000000e+00
9.000000e-01
1.000000e+00
9.000000e-01
1.000000e+00
9.000000e-01
1.000000e+00
9.000000e-01
1.000000e+00
9.000000e-01
1.000000e+00
9.000000e-01
1.000000e+00
9.000000e-01
1.000000e+00
9.000000e-01
1.000000e+00
9.000000e-01
1.000000e+00
</DataArray>
<DataArray type="Float32" Name="V5" format="ascii">
0.000000e+00
0.000000e+00
3.272490e-02
3.272490e-02
3.272490e-02
3.272490e-02
6.544980e-02
6.544980e-02
6.544980e-02
6.544980e-02
9.817480e-02
9.817480e-02
9.817480e-02
9.817480e-02
1.309000e-01
1.309000e-01
1.309000e-01
1.309000e-01
1.636250e-01
1.636250e-01
1.636250e-01
1.636250e-01
1.963500e-01
1.963500e-01
1.963500e-01
1.963500e-01
2.290740e-01
2.290740e-01
2.290740e-01
2.290740e-01
2.617990e-01
2.617990e-01
2.617990e-01
2.617990e-01
2.945240e-01
2.945240e-01
2.945240e-01
2.945240e-01
3.272490e-01
3.272490e-01
3.272490e-01
3.272490e-01
3.599740e-01
3.599740e-01
3.599740e-01
3.599740e-01
3.926990e-01
3.926990e-01
3.926990e-01
3.926990e-01
4.254240e-01
4.254240e-01
4.254240e-01
4.254240e-01
4.581490e-01
4.581490e-01
4.581490e-01
4.581490e-01
4.908740e-01
4.908740e-01
4.908740e-01
4.908740e-01
5.235990e-01
5.235990e-01
5.235990e-01
5.235990e-01
5.563240e-01
5.563240e-01
5.563240e-01
5.563240e-01
5.890490e-01
5.890490e-01
5.890490e-01
5.890490e-01
6.217740e-01
6.217740e-01
6.217740e-01
6.217740e-01
6.544980e-01
6.544980e-01
6.544980e-01
6.544980e-01
6.872230e-01
6.872230e-01
6.872230e-01
6.872230e-01
7.199480e-01
7.199480e-01
7.199480e-01
7.199480e-01
7.526730e-01
7.526730e-01
7.526730e-01
7.526730e-01
7.853980e-01
7.853980e-01
7.853980e-01
7.853980e-01
8.181230e-01
8.181230e-01
8.181230e-01
8.181230e-01
8.508480e-01
8.508480e-01
8.508480e-01
8.508480e-01
8.835730e-01
8.835730e-01
8.835730e-01
8.835730e-01
9.162980e-01
9.162980e-01
9.162980e-01
9.162980e-01
9.490230e-01
9.490230e-01
9.490230e-01
9.490230e-01
9.817480e-01
9.817480e-01
9.817480e-01
9.817480e-01
1.014470e+00
1.014470e+00
1.014470e+00
1.014470e+00
1.047200e+00
1.047200e+00
1.047200e+00
1.047200e+00
1.079920e+00
1.079920e+00
1.079920e+00
1.079920e+00
1.112650e+00
1.112650e+00
1.112650e+00
1.112650e+00
1.145370e+00
1.145370e+00
1.145370e+00
1.145370e+00
1.178100e+00
1.178100e+00
1.178100e+00
1.178100e+00
1.210820e+00
1.210820e+00
1.210820e+00
1.210820e+00
1.243550e+00
1.243550e+00
1.243550e+00
1.243550e+00
1.276270e+00
1.276270e+00
1.276270e+00
1.276270e+00
1.309000e+00
1.309000e+00
1.309000e+00
1.309000e+00
1.341720e+00
1.341720e+00
1.341720e+00
1.341720e+00
1.374450e+00
1.374450e+00
1.374450e+00
1.374450e+00
1.407170e+00
1.407170e+00
1.407170e+00
1.407170e+00
1.439900e+00
1.439900e+00
1.439900e+00
1.439900e+00
1.472620e+00
1.472620e+00
1.472620e+00
1.472620e+00
1.505350e+00
1.505350e+00
1.505350e+00
1.505350e+00
1.538070e+00
1.538070e+00
1.538070e+00
1.538070e+00
1.570800e+00
1.570800e+00
</DataArray>
</PointData>
</Piece></UnstructuredGrid>
</VTKFile>
