<?xml version="1.0"?>
<VTKFile type="UnstructuredGrid" version="0.1" byte_order="LittleEndian" compressor="vtkZLibDataCompressor">
<UnstructuredGrid>
<Piece NumberOfPoints="192" NumberOfCells="48">
<Points>
<DataArray type="Float32" NumberOfComponents="3" format="ascii">
0.000000e+00 5.099800e-01 0.000000e+00
0.000000e+00 5.900000e-01 0.000000e+00
3.478760e-02 5.099930e-01 0.000000e+00
3.476150e-02 5.900000e-01 0.000000e+00
3.478760e-02 5.099930e-01 0.000000e+00
3.476150e-02 5.900000e-01 0.000000e+00
6.957410e-02 5.100310e-01 0.000000e+00
6.952200e-02 5.900000e-01 0.000000e+00
6.957410e-02 5.100310e-01 0.000000e+00
6.952200e-02 5.900000e-01 0.000000e+00
1.043580e-01 5.100940e-01 0.000000e+00
1.042800e-01 5.900000e-01 0.000000e+00
1.043580e-01 5.100940e-01 0.000000e+00
1.042800e-01 5.900000e-01 0.000000e+00
1.391400e-01 5.101820e-01 0.000000e+00
1.390360e-01 5.900000e-01 0.000000e+00
1.391400e-01 5.101820e-01 0.000000e+00
1.390360e-01 5.900000e-01 0.000000e+00
1.739160e-01 5.102960e-01 0.000000e+00
1.737860e-01 5.900000e-01 0.000000e+00
1.739160e-01 5.102960e-01 0.000000e+00
1.737860e-01 5.900000e-01 0.000000e+00
2.086870e-01 5.104340e-01 0.000000e+00
2.085320e-01 5.900000e-01 0.000000e+00
2.086870e-01 5.104340e-01 0.000000e+00
2.085320e-01 5.900000e-01 0.000000e+00
2.434510e-01 5.105980e-01 0.000000e+00
2.432700e-01 5.900000e-01 0.000000e+00
2.434510e-01 5.105980e-01 0.000000e+00
2.432700e-01 5.900000e-01 0.000000e+00
2.782070e-01 5.107860e-01 0.000000e+00
2.780010e-01 5.900000e-01 0.000000e+00
2.782070e-01 5.107860e-01 0.000000e+00
2.780010e-01 5.900000e-01 0.000000e+00
3.129550e-01 5.110000e-01 0.000000e+00
3.127240e-01 5.900000e-01 0.000000e+00
3.129550e-01 5.110000e-01 0.000000e+00
3.127240e-01 5.900000e-01 0.000000e+00
3.476930e-01 5.112380e-01 0.000000e+00
3.474360e-01 5.900000e-01 0.000000e+00
3.476930e-01 5.112380e-01 0.000000e+00
3.474360e-01 5.900000e-01 0.000000e+00
3.824200e-01 5.115010e-01 0.000000e+00
3.821390e-01 5.900000e-01 0.000000e+00
3.824200e-01 5.115010e-01 0.000000e+00
3.821390e-01 5.900000e-01 0.000000e+00
4.171340e-01 5.117880e-01 0.000000e+00
4.168290e-01 5.900000e-01 0.000000e+00
4.171340e-01 5.117880e-01 0.000000e+00
4.168290e-01 5.900000e-01 0.000000e+00
4.518360e-01 5.121000e-01 0.000000e+00
4.515060e-01 5.900000e-01 0.000000e+00
4.518360e-01 5.121000e-01 0.000000e+00
4.515060e-01 5.900000e-01 0.000000e+00
4.865240e-01 5.124360e-01 0.000000e+00
4.861690e-01 5.900000e-01 0.000000e+00
4.865240e-01 5.124360e-01 0.000000e+00
4.861690e-01 5.900000e-01 0.000000e+00
5.211970e-01 5.127970e-01 0.000000e+00
5.208160e-01 5.900000e-01 0.000000e+00
5.211970e-01 5.127970e-01 0.000000e+00
5.208160e-01 5.900000e-01 0.000000e+00
5.558550e-01 5.131840e-01 0.000000e+00
5.554480e-01 5.900000e-01 0.000000e+00
5.558550e-01 5.131840e-01 0.000000e+00
5.554480e-01 5.900000e-01 0.000000e+00
5.904970e-01 5.135970e-01 0.000000e+00
5.900650e-01 5.900000e-01 0.000000e+00
5.904970e-01 5.135970e-01 0.000000e+00
5.900650e-01 5.900000e-01 0.000000e+00
6.251210e-01 5.140420e-01 0.000000e+00
6.246720e-01 5.900000e-01 0.000000e+00
6.251210e-01 5.140420e-01 0.000000e+00
6.246720e-01 5.900000e-01 0.000000e+00
6.597190e-01 5.145230e-01 0.000000e+00
6.592850e-01 5.900000e-01 0.000000e+00
6.597190e-01 5.145230e-01 0.000000e+00
6.592850e-01 5.900000e-01 0.000000e+00
6.942650e-01 5.150500e-01 0.000000e+00
6.939370e-01 5.900000e-01 0.000000e+00
6.942650e-01 5.150500e-01 0.000000e+00
6.939370e-01 5.900000e-01 0.000000e+00
7.287040e-01 5.156220e-01 0.000000e+00
7.286970e-01 5.900000e-01 0.000000e+00
7.287040e-01 5.156220e-01 0.000000e+00
7.286970e-01 5.900000e-01 0.000000e+00
7.629000e-01 5.162070e-01 0.000000e+00
7.636750e-01 5.900000e-01 0.000000e+00
7.629000e-01 5.162070e-01 0.000000e+00
7.636750e-01 5.900000e-01 0.000000e+00
7.966000e-01 5.166540e-01 0.000000e+00
7.990080e-01 5.900000e-01 0.000000e+00
7.966000e-01 5.166540e-01 0.000000e+00
7.990080e-01 5.900000e-01 0.000000e+00
8.294510e-01 5.165300e-01 0.000000e+00
8.347280e-01 5.900000e-01 0.000000e+00
8.294510e-01 5.165300e-01 0.000000e+00
8.347280e-01 5.900000e-01 0.000000e+00
8.615640e-01 5.151820e-01 0.000000e+00
8.703220e-01 5.890660e-01 0.000000e+00
8.615640e-01 5.151820e-01 0.000000e+00
8.703220e-01 5.890660e-01 0.000000e+00
8.926730e-01 5.117940e-01 0.000000e+00
9.058350e-01 5.845220e-01 0.000000e+00
8.926730e-01 5.117940e-01 0.000000e+00
9.058350e-01 5.845220e-01 0.000000e+00
9.229160e-01 5.060150e-01 0.000000e+00
9.411640e-01 5.770070e-01 0.000000e+00
9.229160e-01 5.060150e-01 0.000000e+00
9.411640e-01 5.770070e-01 0.000000e+00
9.523910e-01 4.977390e-01 0.000000e+00
9.758830e-01 5.665460e-01 0.000000e+00
9.523910e-01 4.977390e-01 0.000000e+00
9.758830e-01 5.665460e-01 0.000000e+00
9.810480e-01 4.870250e-01 0.000000e+00
1.009640e+00 5.532550e-01 0.000000e+00
9.810480e-01 4.870250e-01 0.000000e+00
1.009640e+00 5.532550e-01 0.000000e+00
1.008790e+00 4.739830e-01 0.000000e+00
1.042190e+00 5.373170e-01 0.000000e+00
1.008790e+00 4.739830e-01 0.000000e+00
1.042190e+00 5.373170e-01 0.000000e+00
1.035510e+00 4.587490e-01 0.000000e+00
1.073320e+00 5.189460e-01 0.000000e+00
1.035510e+00 4.587490e-01 0.000000e+00
1.073320e+00 5.189460e-01 0.000000e+00
1.061100e+00 4.414670e-01 0.000000e+00
1.102940e+00 4.983510e-01 0.000000e+00
1.061100e+00 4.414670e-01 0.000000e+00
1.102940e+00 4.983510e-01 0.000000e+00
1.085460e+00 4.223010e-01 0.000000e+00
1.130920e+00 4.757530e-01 0.000000e+00
1.085460e+00 4.223010e-01 0.000000e+00
1.130920e+00 4.757530e-01 0.000000e+00
1.108520e+00 4.013930e-01 0.000000e+00
1.157230e+00 4.513320e-01 0.000000e+00
1.108520e+00 4.013930e-01 0.000000e+00
1.157230e+00 4.513320e-01 0.000000e+00
1.130210e+00 3.789040e-01 0.000000e+00
1.181810e+00 4.252840e-01 0.000000e+00
1.130210e+00 3.789040e-01 0.000000e+00
1.181810e+00 4.252840e-01 0.000000e+00
1.150460e+00 3.549670e-01 0.000000e+00
1.204640e+00 3.977580e-01 0.000000e+00
1.150460e+00 3.549670e-01 0.000000e+00
1.204640e+00 3.977580e-01 0.000000e+00
1.169230e+00 3.297320e-01 0.000000e+00
1.225690e+00 3.689240e-01 0.000000e+00
1.169230e+00 3.297320e-01 0.000000e+00
1.225690e+00 3.689240e-01 0.000000e+00
1.186480e+00 3.033170e-01 0.000000e+00
1.244950e+00 3.389050e-01 0.000000e+00
1.186480e+00 3.033170e-01 0.000000e+00
1.244950e+00 3.389050e-01 0.000000e+00
1.202160e+00 2.758620e-01 0.000000e+00
1.262390e+00 3.078530e-01 0.000000e+00
1.202160e+00 2.758620e-01 0.000000e+00
1.262390e+00 3.078530e-01 0.000000e+00
1.216260e+00 2.474700e-01 0.000000e+00
1.278030e+00 2.758710e-01 0.000000e+00
1.216260e+00 2.474700e-01 0.000000e+00
1.278030e+00 2.758710e-01 0.000000e+00
1.228750e+00 2.182740e-01 0.000000e+00
1.291830e+00 2.430950e-01 0.000000e+00
1.228750e+00 2.182740e-01 0.000000e+00
1.291830e+00 2.430950e-01 0.000000e+00
1.239610e+00 1.883670e-01 0.000000e+00
1.303810e+00 2.096170e-01 0.000000e+00
1.239610e+00 1.883670e-01 0.000000e+00
1.303810e+00 2.096170e-01 0.000000e+00
1.248830e+00 1.578730e-01 0.000000e+00
1.313950e+00 1.755650e-01 0.000000e+00
1.248830e+00 1.578730e-01 0.000000e+00
1.313950e+00 1.755650e-01 0.000000e+00
1.256380e+00 1.268770e-01 0.000000e+00
1.322250e+00 1.410180e-01 0.000000e+00
1.256380e+00 1.268770e-01 0.000000e+00
1.322250e+00 1.410180e-01 0.000000e+00
1.262270e+00 9.550100e-02 0.000000e+00
1.328710e+00 1.061000e-01 0.000000e+00
1.262270e+00 9.550100e-02 0.000000e+00
1.328710e+00 1.061000e-01 0.000000e+00
1.266480e+00 6.382370e-02 0.000000e+00
1.333330e+00 7.088590e-02 0.000000e+00
1.266480e+00 6.382370e-02 0.000000e+00
1.333330e+00 7.088590e-02 0.000000e+00
1.269010e+00 3.196260e-02 0.000000e+00
1.336100e+00 3.549310e-02 0.000000e+00
1.269010e+00 3.196260e-02 0.000000e+00
1.336100e+00 3.549310e-02 0.000000e+00
1.269850e+00 -4.664430e-06 0.000000e+00
1.337030e+00 -4.911170e-06 0.000000e+00
</DataArray>
</Points>
<Cells>
<DataArray type="Int32" Name="connectivity" format="ascii">
0 1 3 2
4 5 7 6
8 9 11 10
12 13 15 14
16 17 19 18
20 21 23 22
24 25 27 26
28 29 31 30
32 33 35 34
36 37 39 38
40 41 43 42
44 45 47 46
48 49 51 50
52 53 55 54
56 57 59 58
60 61 63 62
64 65 67 66
68 69 71 70
72 73 75 74
76 77 79 78
80 81 83 82
84 85 87 86
88 89 91 90
92 93 95 94
96 97 99 98
100 101 103 102
104 105 107 106
108 109 111 110
112 113 115 114
116 117 119 118
120 121 123 122
124 125 127 126
128 129 131 130
132 133 135 134
136 137 139 138
140 141 143 142
144 145 147 146
148 149 151 150
152 153 155 154
156 157 159 158
160 161 163 162
164 165 167 166
168 169 171 170
172 173 175 174
176 177 179 178
180 181 183 182
184 185 187 186
188 189 191 190
</DataArray>
<DataArray type="Int32" Name="offsets" format="ascii">
4
8
12
16
20
24
28
32
36
40
44
48
52
56
60
64
68
72
76
80
84
88
92
96
100
104
108
112
116
120
124
128
132
136
140
144
148
152
156
160
164
168
172
176
180
184
188
192
</DataArray>
<DataArray type="UInt8" Name="types" format="ascii">
9
9
9
9
9
9
9
9
9
9
9
9
9
9
9
9
9
9
9
9
9
9
9
9
9
9
9
9
9
9
9
9
9
9
9
9
9
9
9
9
9
9
9
9
9
9
9
9
</DataArray>
</Cells>
<PointData>
<DataArray type="Float32" Name="V1" format="ascii">
2.390090e+00
2.195040e-01
2.391990e+00
2.214080e-01
2.392380e+00
2.214370e-01
2.396880e+00
2.259430e-01
2.397530e+00
2.258050e-01
2.405370e+00
2.336420e-01
2.406140e+00
2.332340e-01
2.417260e+00
2.443540e-01
2.418200e+00
2.437080e-01
2.432600e+00
2.581020e-01
2.433720e+00
2.572280e-01
2.451390e+00
2.749020e-01
2.452720e+00
2.738040e-01
2.473690e+00
2.947730e-01
2.475230e+00
2.934490e-01
2.499520e+00
3.177380e-01
2.501290e+00
3.161810e-01
2.528920e+00
3.438170e-01
2.530930e+00
3.420190e-01
2.561950e+00
3.730380e-01
2.564210e+00
3.709870e-01
2.598650e+00
4.054300e-01
2.601190e+00
4.031080e-01
2.639100e+00
4.410180e-01
2.641950e+00
4.383980e-01
2.683380e+00
4.798260e-01
2.686580e+00
4.768620e-01
2.731580e+00
5.218550e-01
2.735220e+00
5.184820e-01
2.783810e+00
5.670740e-01
2.787990e+00
5.632040e-01
2.840170e+00
6.153840e-01
2.844960e+00
6.109650e-01
2.900610e+00
6.666230e-01
2.905830e+00
6.618320e-01
2.964670e+00
7.206640e-01
2.969290e+00
7.164660e-01
3.030700e+00
7.778760e-01
3.031320e+00
7.774100e-01
3.094450e+00
8.405370e-01
3.081870e+00
8.521320e-01
3.146280e+00
9.165450e-01
3.099040e+00
9.594390e-01
3.167550e+00
1.027950e+00
3.042050e+00
1.140830e+00
3.129220e+00
1.228010e+00
2.852100e+00
1.475530e+00
3.003650e+00
1.627080e+00
2.521020e+00
2.119290e+00
2.723380e+00
2.321660e+00
2.383910e+00
2.612390e+00
2.479170e+00
2.707650e+00
2.327960e+00
2.841870e+00
2.415830e+00
2.929750e+00
2.340900e+00
2.998400e+00
2.429300e+00
3.086800e+00
2.399950e+00
3.113870e+00
2.487180e+00
3.201090e+00
2.484400e+00
3.203700e+00
2.568960e+00
3.288260e+00
2.581100e+00
3.277140e+00
2.662030e+00
3.358080e+00
2.681960e+00
3.339800e+00
2.758700e+00
3.416540e+00
2.782080e+00
3.395070e+00
2.854210e+00
3.467200e+00
2.878520e+00
3.444890e+00
2.945870e+00
3.512240e+00
2.969650e+00
3.490450e+00
3.032080e+00
3.552880e+00
3.054490e+00
3.532320e+00
3.111990e+00
3.589830e+00
3.132660e+00
3.570900e+00
3.185220e+00
3.623460e+00
3.203940e+00
3.606300e+00
3.251630e+00
3.653990e+00
3.268380e+00
3.638650e+00
3.311230e+00
3.681510e+00
3.326020e+00
3.667960e+00
3.364130e+00
3.706060e+00
3.377040e+00
3.694250e+00
3.410450e+00
3.727660e+00
3.421540e+00
3.717510e+00
3.450350e+00
3.746320e+00
3.459700e+00
3.737770e+00
3.483950e+00
3.762020e+00
3.491630e+00
3.754990e+00
3.511390e+00
3.774750e+00
3.517470e+00
3.769200e+00
3.532780e+00
3.784520e+00
3.537290e+00
3.780390e+00
3.548210e+00
3.791300e+00
3.551190e+00
3.788580e+00
3.557730e+00
3.795110e+00
3.559220e+00
3.793750e+00
3.561390e+00
3.795930e+00
</DataArray>
<DataArray type="Float32" Name="V2" format="ascii">
5.099800e-01
5.900000e-01
5.108580e-01
5.908210e-01
5.108580e-01
5.908210e-01
5.134890e-01
5.932840e-01
5.134890e-01
5.932840e-01
5.178670e-01
5.973800e-01
5.178670e-01
5.973800e-01
5.239790e-01
6.031000e-01
5.239790e-01
6.031000e-01
5.318100e-01
6.104290e-01
5.318100e-01
6.104290e-01
5.413390e-01
6.193460e-01
5.413390e-01
6.193460e-01
5.525410e-01
6.298280e-01
5.525410e-01
6.298280e-01
5.653870e-01
6.418480e-01
5.653870e-01
6.418480e-01
5.798420e-01
6.553740e-01
5.798420e-01
6.553740e-01
5.958690e-01
6.703690e-01
5.958690e-01
6.703690e-01
6.134240e-01
6.867930e-01
6.134240e-01
6.867930e-01
6.324610e-01
7.046020e-01
6.324610e-01
7.046020e-01
6.529290e-01
7.237490e-01
6.529290e-01
7.237490e-01
6.747740e-01
7.441820e-01
6.747740e-01
7.441820e-01
6.979380e-01
7.658450e-01
6.979380e-01
7.658450e-01
7.223580e-01
7.886790e-01
7.223580e-01
7.886790e-01
7.479710e-01
8.126240e-01
7.479710e-01
8.126240e-01
7.747090e-01
8.376170e-01
7.747090e-01
8.376170e-01
8.025000e-01
8.635990e-01
8.025000e-01
8.635990e-01
8.312580e-01
8.905210e-01
8.312580e-01
8.905210e-01
8.608660e-01
9.183560e-01
8.608660e-01
9.183560e-01
8.911190e-01
9.471120e-01
8.911190e-01
9.471120e-01
9.216360e-01
9.768160e-01
9.216360e-01
9.768160e-01
9.517530e-01
1.007430e+00
9.517530e-01
1.007430e+00
9.809990e-01
1.037900e+00
9.809990e-01
1.037900e+00
1.008600e+00
1.066450e+00
1.008600e+00
1.066450e+00
1.034440e+00
1.093580e+00
1.034440e+00
1.093580e+00
1.058590e+00
1.119110e+00
1.058590e+00
1.119110e+00
1.081120e+00
1.142940e+00
1.081120e+00
1.142940e+00
1.102110e+00
1.165060e+00
1.102110e+00
1.165060e+00
1.121600e+00
1.185510e+00
1.121600e+00
1.185510e+00
1.139670e+00
1.204350e+00
1.139670e+00
1.204350e+00
1.156360e+00
1.221650e+00
1.156360e+00
1.221650e+00
1.171740e+00
1.237510e+00
1.171740e+00
1.237510e+00
1.185840e+00
1.251990e+00
1.185840e+00
1.251990e+00
1.198730e+00
1.265160e+00
1.198730e+00
1.265160e+00
1.210440e+00
1.277080e+00
1.210440e+00
1.277080e+00
1.221010e+00
1.287820e+00
1.221010e+00
1.287820e+00
1.230470e+00
1.297400e+00
1.230470e+00
1.297400e+00
1.238870e+00
1.305880e+00
1.238870e+00
1.305880e+00
1.246220e+00
1.313290e+00
1.246220e+00
1.313290e+00
1.252540e+00
1.319650e+00
1.252540e+00
1.319650e+00
1.257860e+00
1.325000e+00
1.257860e+00
1.325000e+00
1.262200e+00
1.329350e+00
1.262200e+00
1.329350e+00
1.265550e+00
1.332720e+00
1.265550e+00
1.332720e+00
1.267940e+00
1.335110e+00
1.267940e+00
1.335110e+00
1.269370e+00
1.336550e+00
1.269370e+00
1.336550e+00
1.269850e+00
1.337030e+00
</DataArray>
<DataArray type="Float32" Name="V3" format="ascii">
0.000000e+00
0.000000e+00
1.808250e-02
1.543870e-02
1.808250e-02
1.543870e-02
3.606750e-02
3.078530e-02
3.606750e-02
3.078530e-02
5.385800e-02
4.594810e-02
5.385800e-02
4.594810e-02
7.135700e-02
6.083560e-02
7.135700e-02
6.083560e-02
8.846830e-02
7.535670e-02
8.846830e-02
7.535670e-02
1.050960e-01
8.942140e-02
1.050960e-01
8.942140e-02
1.211470e-01
1.029400e-01
1.211470e-01
1.029400e-01
1.365270e-01
1.158250e-01
1.365270e-01
1.158250e-01
1.511440e-01
1.279900e-01
1.511440e-01
1.279900e-01
1.649090e-01
1.393490e-01
1.649090e-01
1.393490e-01
1.777330e-01
1.498180e-01
1.777330e-01
1.498180e-01
1.895290e-01
1.593160e-01
1.895290e-01
1.593160e-01
2.002140e-01
1.677630e-01
2.002140e-01
1.677630e-01
2.097050e-01
1.750810e-01
2.097050e-01
1.750810e-01
2.179240e-01
1.811950e-01
2.179240e-01
1.811950e-01
2.247930e-01
1.860320e-01
2.247930e-01
1.860320e-01
2.302370e-01
1.895240e-01
2.302370e-01
1.895240e-01
2.341830e-01
1.916090e-01
2.341830e-01
1.916090e-01
2.365510e-01
1.922360e-01
2.365510e-01
1.922360e-01
2.372560e-01
1.913680e-01
2.372560e-01
1.913680e-01
2.361890e-01
1.889990e-01
2.361890e-01
1.889990e-01
2.332200e-01
1.851480e-01
2.332200e-01
1.851480e-01
2.282290e-01
1.798480e-01
2.282290e-01
1.798480e-01
2.212680e-01
1.730490e-01
2.212680e-01
1.730490e-01
2.129460e-01
1.650070e-01
2.129460e-01
1.650070e-01
2.037930e-01
1.577910e-01
2.037930e-01
1.577910e-01
1.943370e-01
1.510360e-01
1.943370e-01
1.510360e-01
1.848960e-01
1.446090e-01
1.848960e-01
1.446090e-01
1.755610e-01
1.383830e-01
1.755610e-01
1.383830e-01
1.663510e-01
1.322440e-01
1.663510e-01
1.322440e-01
1.572490e-01
1.261000e-01
1.572490e-01
1.261000e-01
1.482250e-01
1.198800e-01
1.482250e-01
1.198800e-01
1.392490e-01
1.135390e-01
1.392490e-01
1.135390e-01
1.302870e-01
1.070400e-01
1.302870e-01
1.070400e-01
1.213170e-01
1.003700e-01
1.213170e-01
1.003700e-01
1.123130e-01
9.351340e-02
1.123130e-01
9.351340e-02
1.032650e-01
8.647420e-02
1.032650e-01
8.647420e-02
9.415700e-02
7.925200e-02
9.415700e-02
7.925200e-02
8.498830e-02
7.185930e-02
8.498830e-02
7.185930e-02
7.575080e-02
6.430320e-02
7.575080e-02
6.430320e-02
6.645060e-02
5.660210e-02
6.645060e-02
5.660210e-02
5.708550e-02
4.876690e-02
5.708550e-02
4.876690e-02
4.766640e-02
4.081930e-02
4.766640e-02
4.081930e-02
3.819480e-02
3.277240e-02
3.819480e-02
3.277240e-02
2.868490e-02
2.464960e-02
2.868490e-02
2.464960e-02
1.914030e-02
1.646530e-02
1.914030e-02
1.646530e-02
9.577080e-03
8.243820e-03
9.577080e-03
8.243820e-03
0.000000e+00
0.000000e+00
</DataArray>
<DataArray type="Float32" Name="V4" format="ascii">
9.000000e-01
1.000000e+00
9.000000e-01
1.000000e+00
9.000000e-01
1.000000e+00
9.000000e-01
1.000000e+00
9.000000e-01
1.000000e+00
9.000000e-01
1.000000e+00
9.000000e-01
1.000000e+00
9.000000e-01
1.000000e+00
9.000000e-01
1.000000e+00
9.000000e-01
1.000000e+00
9.000000e-01
1.000000e+00
9.000000e-01
1.000000e+00
9.000000e-01
1.000000e+00
9.000000e-01
1.000000e+00
9.000000e-01
1.000000e+00
9.000000e-01
1.000000e+00
9.000000e-01
1.000000e+00
9.000000e-01
1.000000e+00
9.000000e-01
1.000000e+00
9.000000e-01
1.000000e+00
9.000000e-01
1.000000e+00
9.000000e-01
1.000000e+00
9.000000e-01
1.000000e+00
9.000000e-01
1.000000e+00
9.000000e-01
1.000000e+00
9.000000e-01
1.000000e+00
9.000000e-01
1.000000e+00
9.000000e-01
1.000000e+00
9.000000e-01
1.000000e+00
9.000000e-01
1.000000e+00
9.000000e-01
1.000000e+00
9.000000e-01
1.000000e+00
9.000000e-01
1.000000e+00
9.000000e-01
1.000000e+00
9.000000e-01
1.000000e+00
9.000000e-01
1.000000e+00
9.000000e-01
1.000000e+00
9.000000e-01
1.000000e+00
9.000000e-01
1.000000e+00
9.000000e-01
1.000000e+00
9.000000e-01
1.000000e+00
9.000000e-01
1.000000e+00
9.000000e-01
1.000000e+00
9.000000e-01
1.000000e+00
9.000000e-01
1.000000e+00
9.000000e-01
1.000000e+00
9.000000e-01
1.000000e+00
9.000000e-01
1.000000e+00
9.000000e-01
1.000000e+00
9.000000e-01
1.000000e+00
9.000000e-01
1.000000e+00
9.000000e-01
1.000000e+00
9.000000e-01
1.000000e+00
9.000000e-01
1.000000e+00
9.000000e-01
1.000000e+00
9.000000e-01
1.000000e+00
9.000000e-01
1.000000e+00
9.000000e-01
1.000000e+00
9.000000e-01
1.000000e+00
9.000000e-01
1.000000e+00
9.000000e-01
1.000000e+00
9.000000e-01
1.000000e+00
9.000000e-01
1.000000e+00
9.000000e-01
1.000000e+00
9.000000e-01
1.000000e+00
9.000000e-01
1.000000e+00
9.000000e-01
1.000000e+00
9.000000e-01
1.000000e+00
9.000000e-01
1.000000e+00
9.000000e-01
1.000000e+00
9.000000e-01
1.000000e+00
9.000000e-01
1.000000e+00
9.000000e-01
1.000000e+00
9.000000e-01
1.000000e+00
9.000000e-01
1.000000e+00
9.000000e-01
1.000000e+00
9.000000e-01
1.000000e+00
9.000000e-01
1.000000e+00
9.000000e-01
1.000000e+00
9.000000e-01
1.000000e+00
9.000000e-01
1.000000e+00
9.000000e-01
1.000000e+00
9.000000e-01
1.000000e+00
9.000000e-01
1.000000e+00
9.000000e-01
1.000000e+00
9.000000e-01
1.000000e+00
9.000000e-01
1.000000e+00
9.000000e-01
1.000000e+00
9.000000e-01
1.000000e+00
9.000000e-01
1.000000e+00
9.000000e-01
1.000000e+00
9.000000e-01
1.000000e+00
9.000000e-01
1.000000e+00
9.000000e-01
1.000000e+00
9.000000e-01
1.000000e+00
9.000000e-01
1.000000e+00
</DataArray>
<DataArray type="Float32" Name="V5" format="ascii">
0.000000e+00
0.000000e+00
3.272490e-02
3.272490e-02
3.272490e-02
3.272490e-02
6.544980e-02
6.544980e-02
6.544980e-02
6.544980e-02
9.817480e-02
9.817480e-02
9.817480e-02
9.817480e-02
1.309000e-01
1.309000e-01
1.309000e-01
1.309000e-01
1.636250e-01
1.636250e-01
1.636250e-01
1.636250e-01
1.963500e-01
1.963500e-01
1.963500e-01
1.963500e-01
2.290740e-01
2.290740e-01
2.290740e-01
2.290740e-01
2.617990e-01
2.617990e-01
2.617990e-01
2.617990e-01
2.945240e-01
2.945240e-01
2.945240e-01
2.945240e-01
3.272490e-01
3.272490e-01
3.272490e-01
3.272490e-01
3.599740e-01
3.599740e-01
3.599740e-01
3.599740e-01
3.926990e-01
3.926990e-01
3.926990e-01
3.926990e-01
4.254240e-01
4.254240e-01
4.254240e-01
4.254240e-01
4.581490e-01
4.581490e-01
4.581490e-01
4.581490e-01
4.908740e-01
4.908740e-01
4.908740e-01
4.908740e-01
5.235990e-01
5.235990e-01
5.235990e-01
5.235990e-01
5.563240e-01
5.563240e-01
5.563240e-01
5.563240e-01
5.890490e-01
5.890490e-01
5.890490e-01
5.890490e-01
6.217740e-01
6.217740e-01
6.217740e-01
6.217740e-01
6.544980e-01
6.544980e-01
6.544980e-01
6.544980e-01
6.872230e-01
6.872230e-01
6.872230e-01
6.872230e-01
7.199480e-01
7.199480e-01
7.199480e-01
7.199480e-01
7.526730e-01
7.526730e-01
7.526730e-01
7.526730e-01
7.853980e-01
7.853980e-01
7.853980e-01
7.853980e-01
8.181230e-01
8.181230e-01
8.181230e-01
8.181230e-01
8.508480e-01
8.508480e-01
8.508480e-01
8.508480e-01
8.835730e-01
8.835730e-01
8.835730e-01
8.835730e-01
9.162980e-01
9.162980e-01
9.162980e-01
9.162980e-01
9.490230e-01
9.490230e-01
9.490230e-01
9.490230e-01
9.817480e-01
9.817480e-01
9.817480e-01
9.817480e-01
1.014470e+00
1.014470e+00
1.014470e+00
1.014470e+00
1.047200e+00
1.047200e+00
1.047200e+00
1.047200e+00
1.079920e+00
1.079920e+00
1.079920e+00
1.079920e+00
1.112650e+00
1.112650e+00
1.112650e+00
1.112650e+00
1.145370e+00
1.145370e+00
1.145370e+00
1.145370e+00
1.178100e+00
1.178100e+00
1.178100e+00
1.178100e+00
1.210820e+00
1.210820e+00
1.210820e+00
1.210820e+00
1.243550e+00
1.243550e+00
1.243550e+00
1.243550e+00
1.276270e+00
1.276270e+00
1.276270e+00
1.276270e+00
1.309000e+00
1.309000e+00
1.309000e+00
1.309000e+00
1.341720e+00
1.341720e+00
1.341720e+00
1.341720e+00
1.374450e+00
1.374450e+00
1.374450e+00
1.374450e+00
1.407170e+00
1.407170e+00
1.407170e+00
1.407170e+00
1.439900e+00
1.439900e+00
1.439900e+00
1.439900e+00
1.472620e+00
1.472620e+00
1.472620e+00
1.472620e+00
1.505350e+00
1.505350e+00
1.505350e+00
1.505350e+00
1.538070e+00
1.538070e+00
1.538070e+00
1.538070e+00
1.570800e+00
1.570800e+00
</DataArray>
</PointData>
</Piece></UnstructuredGrid>
</VTKFile>
