<?xml version="1.0"?>
<VTKFile type="UnstructuredGrid" version="0.1" byte_order="LittleEndian" compressor="vtkZLibDataCompressor">
<UnstructuredGrid>
<Piece NumberOfPoints="192" NumberOfCells="48">
<Points>
<DataArray type="Float32" NumberOfComponents="3" format="ascii">
0.000000e+00 6.479850e-01 0.000000e+00
0.000000e+00 7.450000e-01 0.000000e+00
3.160210e-02 6.479980e-01 0.000000e+00
3.156630e-02 7.450000e-01 0.000000e+00
3.160210e-02 6.479980e-01 0.000000e+00
3.156630e-02 7.450000e-01 0.000000e+00
6.320230e-02 6.480380e-01 0.000000e+00
6.313060e-02 7.450000e-01 0.000000e+00
6.320230e-02 6.480380e-01 0.000000e+00
6.313060e-02 7.450000e-01 0.000000e+00
9.479870e-02 6.481040e-01 0.000000e+00
9.469080e-02 7.450000e-01 0.000000e+00
9.479870e-02 6.481040e-01 0.000000e+00
9.469080e-02 7.450000e-01 0.000000e+00
1.263900e-01 6.481970e-01 0.000000e+00
1.262450e-01 7.450000e-01 0.000000e+00
1.263900e-01 6.481970e-01 0.000000e+00
1.262450e-01 7.450000e-01 0.000000e+00
1.579730e-01 6.483160e-01 0.000000e+00
1.577900e-01 7.450000e-01 0.000000e+00
1.579730e-01 6.483160e-01 0.000000e+00
1.577900e-01 7.450000e-01 0.000000e+00
1.895470e-01 6.484610e-01 0.000000e+00
1.893250e-01 7.450000e-01 0.000000e+00
1.895470e-01 6.484610e-01 0.000000e+00
1.893250e-01 7.450000e-01 0.000000e+00
2.211110e-01 6.486340e-01 0.000000e+00
2.208460e-01 7.450000e-01 0.000000e+00
2.211110e-01 6.486340e-01 0.000000e+00
2.208460e-01 7.450000e-01 0.000000e+00
2.526640e-01 6.488360e-01 0.000000e+00
2.523530e-01 7.450000e-01 0.000000e+00
2.526640e-01 6.488360e-01 0.000000e+00
2.523530e-01 7.450000e-01 0.000000e+00
2.842060e-01 6.490710e-01 0.000000e+00
2.838480e-01 7.450000e-01 0.000000e+00
2.842060e-01 6.490710e-01 0.000000e+00
2.838480e-01 7.450000e-01 0.000000e+00
3.157320e-01 6.493450e-01 0.000000e+00
3.153340e-01 7.450000e-01 0.000000e+00
3.157320e-01 6.493450e-01 0.000000e+00
3.153340e-01 7.450000e-01 0.000000e+00
3.472350e-01 6.496680e-01 0.000000e+00
3.468290e-01 7.450000e-01 0.000000e+00
3.472350e-01 6.496680e-01 0.000000e+00
3.468290e-01 7.450000e-01 0.000000e+00
3.786930e-01 6.500540e-01 0.000000e+00
3.783630e-01 7.450000e-01 0.000000e+00
3.786930e-01 6.500540e-01 0.000000e+00
3.783630e-01 7.450000e-01 0.000000e+00
4.100560e-01 6.505110e-01 0.000000e+00
4.099960e-01 7.450000e-01 0.000000e+00
4.100560e-01 6.505110e-01 0.000000e+00
4.099960e-01 7.450000e-01 0.000000e+00
4.412240e-01 6.510250e-01 0.000000e+00
4.418210e-01 7.450000e-01 0.000000e+00
4.412240e-01 6.510250e-01 0.000000e+00
4.418210e-01 7.450000e-01 0.000000e+00
4.720280e-01 6.515090e-01 0.000000e+00
4.739600e-01 7.450000e-01 0.000000e+00
4.720280e-01 6.515090e-01 0.000000e+00
4.739600e-01 7.450000e-01 0.000000e+00
5.022430e-01 6.517060e-01 0.000000e+00
5.065160e-01 7.450000e-01 0.000000e+00
5.022430e-01 6.517060e-01 0.000000e+00
5.065160e-01 7.450000e-01 0.000000e+00
5.318080e-01 6.512250e-01 0.000000e+00
5.394360e-01 7.448380e-01 0.000000e+00
5.318080e-01 6.512250e-01 0.000000e+00
5.394360e-01 7.448380e-01 0.000000e+00
5.607130e-01 6.495190e-01 0.000000e+00
5.725270e-01 7.425760e-01 0.000000e+00
5.607130e-01 6.495190e-01 0.000000e+00
5.725270e-01 7.425760e-01 0.000000e+00
5.888440e-01 6.462370e-01 0.000000e+00
6.057680e-01 7.380270e-01 0.000000e+00
5.888440e-01 6.462370e-01 0.000000e+00
6.057680e-01 7.380270e-01 0.000000e+00
6.163160e-01 6.410850e-01 0.000000e+00
6.388760e-01 7.311560e-01 0.000000e+00
6.163160e-01 6.410850e-01 0.000000e+00
6.388760e-01 7.311560e-01 0.000000e+00
6.431500e-01 6.339790e-01 0.000000e+00
6.715470e-01 7.219010e-01 0.000000e+00
6.431500e-01 6.339790e-01 0.000000e+00
6.715470e-01 7.219010e-01 0.000000e+00
6.693140e-01 6.249200e-01 0.000000e+00
7.035060e-01 7.102920e-01 0.000000e+00
6.693140e-01 6.249200e-01 0.000000e+00
7.035060e-01 7.102920e-01 0.000000e+00
6.947570e-01 6.139530e-01 0.000000e+00
7.345290e-01 6.964350e-01 0.000000e+00
6.947570e-01 6.139530e-01 0.000000e+00
7.345290e-01 6.964350e-01 0.000000e+00
7.194180e-01 6.011610e-01 0.000000e+00
7.644470e-01 6.804820e-01 0.000000e+00
7.194180e-01 6.011610e-01 0.000000e+00
7.644470e-01 6.804820e-01 0.000000e+00
7.432420e-01 5.866440e-01 0.000000e+00
7.931430e-01 6.626090e-01 0.000000e+00
7.432420e-01 5.866440e-01 0.000000e+00
7.931430e-01 6.626090e-01 0.000000e+00
7.661820e-01 5.705170e-01 0.000000e+00
8.205450e-01 6.429970e-01 0.000000e+00
7.661820e-01 5.705170e-01 0.000000e+00
8.205450e-01 6.429970e-01 0.000000e+00
7.881960e-01 5.529000e-01 0.000000e+00
8.466130e-01 6.218220e-01 0.000000e+00
7.881960e-01 5.529000e-01 0.000000e+00
8.466130e-01 6.218220e-01 0.000000e+00
8.092550e-01 5.339120e-01 0.000000e+00
8.713310e-01 5.992490e-01 0.000000e+00
8.092550e-01 5.339120e-01 0.000000e+00
8.713310e-01 5.992490e-01 0.000000e+00
8.293350e-01 5.136690e-01 0.000000e+00
8.947050e-01 5.754260e-01 0.000000e+00
8.293350e-01 5.136690e-01 0.000000e+00
8.947050e-01 5.754260e-01 0.000000e+00
8.484190e-01 4.922810e-01 0.000000e+00
9.167480e-01 5.504860e-01 0.000000e+00
8.484190e-01 4.922810e-01 0.000000e+00
9.167480e-01 5.504860e-01 0.000000e+00
8.664940e-01 4.698540e-01 0.000000e+00
9.374780e-01 5.245490e-01 0.000000e+00
8.664940e-01 4.698540e-01 0.000000e+00
9.374780e-01 5.245490e-01 0.000000e+00
8.835570e-01 4.464770e-01 0.000000e+00
9.569240e-01 4.977070e-01 0.000000e+00
8.835570e-01 4.464770e-01 0.000000e+00
9.569240e-01 4.977070e-01 0.000000e+00
8.995950e-01 4.222500e-01 0.000000e+00
9.751010e-01 4.700680e-01 0.000000e+00
8.995950e-01 4.222500e-01 0.000000e+00
9.751010e-01 4.700680e-01 0.000000e+00
9.146130e-01 3.972410e-01 0.000000e+00
9.920390e-01 4.416930e-01 0.000000e+00
9.146130e-01 3.972410e-01 0.000000e+00
9.920390e-01 4.416930e-01 0.000000e+00
9.286000e-01 3.715410e-01 0.000000e+00
1.007750e+00 4.126720e-01 0.000000e+00
9.286000e-01 3.715410e-01 0.000000e+00
1.007750e+00 4.126720e-01 0.000000e+00
9.415630e-01 3.452020e-01 0.000000e+00
1.022250e+00 3.830520e-01 0.000000e+00
9.415630e-01 3.452020e-01 0.000000e+00
1.022250e+00 3.830520e-01 0.000000e+00
9.534920e-01 3.183050e-01 0.000000e+00
1.035560e+00 3.529100e-01 0.000000e+00
9.534920e-01 3.183050e-01 0.000000e+00
1.035560e+00 3.529100e-01 0.000000e+00
9.643940e-01 2.908920e-01 0.000000e+00
1.047700e+00 3.222810e-01 0.000000e+00
9.643940e-01 2.908920e-01 0.000000e+00
1.047700e+00 3.222810e-01 0.000000e+00
9.742610e-01 2.630380e-01 0.000000e+00
1.058650e+00 2.912350e-01 0.000000e+00
9.742610e-01 2.630380e-01 0.000000e+00
1.058650e+00 2.912350e-01 0.000000e+00
9.830980e-01 2.347760e-01 0.000000e+00
1.068440e+00 2.598020e-01 0.000000e+00
9.830980e-01 2.347760e-01 0.000000e+00
1.068440e+00 2.598020e-01 0.000000e+00
9.908960e-01 2.061750e-01 0.000000e+00
1.077070e+00 2.280450e-01 0.000000e+00
9.908960e-01 2.061750e-01 0.000000e+00
1.077070e+00 2.280450e-01 0.000000e+00
9.976610e-01 1.772640e-01 0.000000e+00
1.084550e+00 1.959910e-01 0.000000e+00
9.976610e-01 1.772640e-01 0.000000e+00
1.084550e+00 1.959910e-01 0.000000e+00
1.003390e+00 1.481080e-01 0.000000e+00
1.090870e+00 1.637010e-01 0.000000e+00
1.003390e+00 1.481080e-01 0.000000e+00
1.090870e+00 1.637010e-01 0.000000e+00
1.008070e+00 1.187320e-01 0.000000e+00
1.096040e+00 1.311980e-01 0.000000e+00
1.008070e+00 1.187320e-01 0.000000e+00
1.096040e+00 1.311980e-01 0.000000e+00
1.011720e+00 8.919740e-02 0.000000e+00
1.100060e+00 9.854380e-02 0.000000e+00
1.011720e+00 8.919740e-02 0.000000e+00
1.100060e+00 9.854380e-02 0.000000e+00
1.014330e+00 5.952960e-02 0.000000e+00
1.102940e+00 6.575820e-02 0.000000e+00
1.014330e+00 5.952960e-02 0.000000e+00
1.102940e+00 6.575820e-02 0.000000e+00
1.015890e+00 2.978810e-02 0.000000e+00
1.104660e+00 3.290220e-02 0.000000e+00
1.015890e+00 2.978810e-02 0.000000e+00
1.104660e+00 3.290220e-02 0.000000e+00
1.016410e+00 -3.733480e-06 0.000000e+00
1.105230e+00 -4.059750e-06 0.000000e+00
</DataArray>
</Points>
<Cells>
<DataArray type="Int32" Name="connectivity" format="ascii">
0 1 3 2
4 5 7 6
8 9 11 10
12 13 15 14
16 17 19 18
20 21 23 22
24 25 27 26
28 29 31 30
32 33 35 34
36 37 39 38
40 41 43 42
44 45 47 46
48 49 51 50
52 53 55 54
56 57 59 58
60 61 63 62
64 65 67 66
68 69 71 70
72 73 75 74
76 77 79 78
80 81 83 82
84 85 87 86
88 89 91 90
92 93 95 94
96 97 99 98
100 101 103 102
104 105 107 106
108 109 111 110
112 113 115 114
116 117 119 118
120 121 123 122
124 125 127 126
128 129 131 130
132 133 135 134
136 137 139 138
140 141 143 142
144 145 147 146
148 149 151 150
152 153 155 154
156 157 159 158
160 161 163 162
164 165 167 166
168 169 171 170
172 173 175 174
176 177 179 178
180 181 183 182
184 185 187 186
188 189 191 190
</DataArray>
<DataArray type="Int32" Name="offsets" format="ascii">
4
8
12
16
20
24
28
32
36
40
44
48
52
56
60
64
68
72
76
80
84
88
92
96
100
104
108
112
116
120
124
128
132
136
140
144
148
152
156
160
164
168
172
176
180
184
188
192
</DataArray>
<DataArray type="UInt8" Name="types" format="ascii">
9
9
9
9
9
9
9
9
9
9
9
9
9
9
9
9
9
9
9
9
9
9
9
9
9
9
9
9
9
9
9
9
9
9
9
9
9
9
9
9
9
9
9
9
9
9
9
9
</DataArray>
</Cells>
<PointData>
<DataArray type="Float32" Name="V1" format="ascii">
1.027760e+00
-1.025300e+00
1.029320e+00
-1.023730e+00
1.029530e+00
-1.023500e+00
1.033190e+00
-1.019850e+00
1.033470e+00
-1.019630e+00
1.039890e+00
-1.013200e+00
1.040120e+00
-1.013090e+00
1.049270e+00
-1.003940e+00
1.049540e+00
-1.003950e+00
1.061400e+00
-9.921010e-01
1.061800e+00
-9.922900e-01
1.076340e+00
-9.777540e-01
1.077020e+00
-9.782260e-01
1.094170e+00
-9.610710e-01
1.095300e+00
-9.619790e-01
1.114910e+00
-9.423680e-01
1.116660e+00
-9.438570e-01
1.138370e+00
-9.221480e-01
1.140750e+00
-9.241880e-01
1.163870e+00
-9.010680e-01
1.166210e+00
-9.030100e-01
1.189580e+00
-8.796350e-01
1.189540e+00
-8.792590e-01
1.211570e+00
-8.572370e-01
1.203060e+00
-8.488960e-01
1.222250e+00
-8.297050e-01
1.191950e+00
-8.011930e-01
1.209140e+00
-7.840090e-01
1.131600e+00
-7.123440e-01
1.155710e+00
-6.882340e-01
9.894640e-01
-5.364610e-01
1.049600e+00
-4.763230e-01
7.377790e-01
-1.774040e-01
8.682110e-01
-4.697140e-02
5.280100e-01
2.928980e-01
6.009260e-01
3.658140e-01
3.930810e-01
5.484290e-01
4.378140e-01
5.931610e-01
2.973390e-01
7.223060e-01
3.420160e-01
7.669830e-01
2.507570e-01
8.513900e-01
2.961560e-01
8.967890e-01
2.432290e-01
9.457000e-01
2.876910e-01
9.901620e-01
2.639620e-01
1.012060e+00
3.062210e-01
1.054320e+00
3.039400e-01
1.056410e+00
3.431950e-01
1.095660e+00
3.559350e-01
1.083880e+00
3.917440e-01
1.119690e+00
4.143350e-01
1.098800e+00
4.465280e-01
1.130990e+00
4.749510e-01
1.104700e+00
5.035590e-01
1.133310e+00
5.348030e-01
1.104380e+00
5.599890e-01
1.129570e+00
5.918880e-01
1.100020e+00
6.138980e-01
1.122030e+00
6.449660e-01
1.093230e+00
6.640890e-01
1.112350e+00
6.933710e-01
1.085180e+00
7.099080e-01
1.101720e+00
7.368530e-01
1.076710e+00
7.511070e-01
1.090960e+00
7.754420e-01
1.068360e+00
7.876840e-01
1.080600e+00
8.093470e-01
1.060470e+00
8.198430e-01
1.070960e+00
8.389050e-01
1.053250e+00
8.478780e-01
1.062220e+00
8.644820e-01
1.046780e+00
8.721410e-01
1.054430e+00
8.864870e-01
1.041090e+00
8.930050e-01
1.047610e+00
9.053010e-01
1.036170e+00
9.108340e-01
1.041700e+00
9.212980e-01
1.031960e+00
9.259730e-01
1.036640e+00
9.348070e-01
1.028410e+00
9.387370e-01
1.032340e+00
9.461300e-01
1.025460e+00
9.494060e-01
1.028740e+00
9.555210e-01
1.023040e+00
9.582220e-01
1.025740e+00
9.632070e-01
1.021100e+00
9.653940e-01
1.023290e+00
9.693680e-01
1.019590e+00
9.710930e-01
1.021310e+00
9.741570e-01
1.018460e+00
9.754590e-01
1.019760e+00
9.776900e-01
1.017690e+00
9.786000e-01
1.018590e+00
9.800560e-01
1.017240e+00
9.805930e-01
1.017780e+00
9.813120e-01
1.017110e+00
9.814900e-01
1.017290e+00
</DataArray>
<DataArray type="Float32" Name="V2" format="ascii">
6.479850e-01
7.450000e-01
6.486850e-01
7.456340e-01
6.486850e-01
7.456340e-01
6.507840e-01
7.475340e-01
6.507840e-01
7.475340e-01
6.542750e-01
7.506940e-01
6.542750e-01
7.506940e-01
6.591480e-01
7.551050e-01
6.591480e-01
7.551050e-01
6.653890e-01
7.607530e-01
6.653890e-01
7.607530e-01
6.729800e-01
7.676210e-01
6.729800e-01
7.676210e-01
6.818990e-01
7.756870e-01
6.818990e-01
7.756870e-01
6.921220e-01
7.849290e-01
6.921220e-01
7.849290e-01
7.036230e-01
7.953170e-01
7.036230e-01
7.953170e-01
7.163730e-01
8.068240e-01
7.163730e-01
8.068240e-01
7.303420e-01
8.194200e-01
7.303420e-01
8.194200e-01
7.454910e-01
8.330830e-01
7.454910e-01
8.330830e-01
7.617600e-01
8.478020e-01
7.617600e-01
8.478020e-01
7.790350e-01
8.635830e-01
7.790350e-01
8.635830e-01
7.970920e-01
8.804540e-01
7.970920e-01
8.804540e-01
8.155150e-01
8.984470e-01
8.155150e-01
8.984470e-01
8.338520e-01
9.173770e-01
8.338520e-01
9.173770e-01
8.515710e-01
9.355090e-01
8.515710e-01
9.355090e-01
8.682800e-01
9.527490e-01
8.682800e-01
9.527490e-01
8.837960e-01
9.689880e-01
8.837960e-01
9.689880e-01
8.980820e-01
9.840620e-01
8.980820e-01
9.840620e-01
9.111490e-01
9.978800e-01
9.111490e-01
9.978800e-01
9.230330e-01
1.010420e+00
9.230330e-01
1.010420e+00
9.337900e-01
1.021720e+00
9.337900e-01
1.021720e+00
9.434910e-01
1.031840e+00
9.434910e-01
1.031840e+00
9.522140e-01
1.040880e+00
9.522140e-01
1.040880e+00
9.600400e-01
1.048920e+00
9.600400e-01
1.048920e+00
9.670510e-01
1.056070e+00
9.670510e-01
1.056070e+00
9.733230e-01
1.062430e+00
9.733230e-01
1.062430e+00
9.789310e-01
1.068080e+00
9.789310e-01
1.068080e+00
9.839430e-01
1.073110e+00
9.839430e-01
1.073110e+00
9.884210e-01
1.077570e+00
9.884210e-01
1.077570e+00
9.924190e-01
1.081550e+00
9.924190e-01
1.081550e+00
9.959860e-01
1.085090e+00
9.959860e-01
1.085090e+00
9.991650e-01
1.088230e+00
9.991650e-01
1.088230e+00
1.001990e+00
1.091030e+00
1.001990e+00
1.091030e+00
1.004500e+00
1.093500e+00
1.004500e+00
1.093500e+00
1.006720e+00
1.095690e+00
1.006720e+00
1.095690e+00
1.008670e+00
1.097610e+00
1.008670e+00
1.097610e+00
1.010360e+00
1.099280e+00
1.010360e+00
1.099280e+00
1.011830e+00
1.100720e+00
1.011830e+00
1.100720e+00
1.013070e+00
1.101950e+00
1.013070e+00
1.101950e+00
1.014110e+00
1.102970e+00
1.014110e+00
1.102970e+00
1.014950e+00
1.103790e+00
1.014950e+00
1.103790e+00
1.015590e+00
1.104430e+00
1.015590e+00
1.104430e+00
1.016050e+00
1.104880e+00
1.016050e+00
1.104880e+00
1.016320e+00
1.105140e+00
1.016320e+00
1.105140e+00
1.016410e+00
1.105230e+00
</DataArray>
<DataArray type="Float32" Name="V3" format="ascii">
0.000000e+00
0.000000e+00
1.038330e-02
7.173710e-03
1.038330e-02
7.173710e-03
2.068330e-02
1.427010e-02
2.068330e-02
1.427010e-02
3.081690e-02
2.121200e-02
3.081690e-02
2.121200e-02
4.070140e-02
2.792260e-02
4.070140e-02
2.792260e-02
5.025490e-02
3.432530e-02
5.025490e-02
3.432530e-02
5.939620e-02
4.034450e-02
5.939620e-02
4.034450e-02
6.804540e-02
4.590510e-02
6.804540e-02
4.590510e-02
7.612380e-02
5.093480e-02
7.612380e-02
5.093480e-02
8.355260e-02
5.536350e-02
8.355260e-02
5.536350e-02
9.025120e-02
5.912740e-02
9.025120e-02
5.912740e-02
9.613390e-02
6.217280e-02
9.613390e-02
6.217280e-02
1.011020e-01
6.446260e-02
1.011020e-01
6.446260e-02
1.050340e-01
6.598390e-02
1.050340e-01
6.598390e-02
1.077810e-01
6.675250e-02
1.077810e-01
6.675250e-02
1.091730e-01
6.680430e-02
1.091730e-01
6.680430e-02
1.091020e-01
6.615560e-02
1.091020e-01
6.615560e-02
1.077210e-01
6.476500e-02
1.077210e-01
6.476500e-02
1.053620e-01
6.348530e-02
1.053620e-01
6.348530e-02
1.022210e-01
6.251220e-02
1.022210e-01
6.251220e-02
9.868900e-02
6.175540e-02
9.868900e-02
6.175540e-02
9.496970e-02
6.114460e-02
9.496970e-02
6.114460e-02
9.117930e-02
6.059630e-02
9.117930e-02
6.059630e-02
8.738440e-02
6.002880e-02
8.738440e-02
6.002880e-02
8.362050e-02
5.937220e-02
8.362050e-02
5.937220e-02
7.990430e-02
5.857260e-02
7.990430e-02
5.857260e-02
7.624100e-02
5.759260e-02
7.624100e-02
5.759260e-02
7.262870e-02
5.641040e-02
7.262870e-02
5.641040e-02
6.906230e-02
5.501670e-02
6.906230e-02
5.501670e-02
6.553500e-02
5.341230e-02
6.553500e-02
5.341230e-02
6.203930e-02
5.160490e-02
6.203930e-02
5.160490e-02
5.856880e-02
4.960680e-02
5.856880e-02
4.960680e-02
5.511590e-02
4.743240e-02
5.511590e-02
4.743240e-02
5.167700e-02
4.509920e-02
5.167700e-02
4.509920e-02
4.824530e-02
4.262220e-02
4.824530e-02
4.262220e-02
4.481890e-02
4.001880e-02
4.481890e-02
4.001880e-02
4.139280e-02
3.730260e-02
4.139280e-02
3.730260e-02
3.796670e-02
3.448930e-02
3.796670e-02
3.448930e-02
3.453670e-02
3.158970e-02
3.453670e-02
3.158970e-02
3.110370e-02
2.861750e-02
3.110370e-02
2.861750e-02
2.766480e-02
2.558110e-02
2.766480e-02
2.558110e-02
2.422180e-02
2.249200e-02
2.422180e-02
2.249200e-02
2.077250e-02
1.935690e-02
2.077250e-02
1.935690e-02
1.731940e-02
1.618540e-02
1.731940e-02
1.618540e-02
1.386090e-02
1.298270e-02
1.386090e-02
1.298270e-02
1.039960e-02
9.757590e-03
1.039960e-02
9.757590e-03
6.934410e-03
6.514180e-03
6.934410e-03
6.514180e-03
3.468240e-03
3.260400e-03
3.468240e-03
3.260400e-03
0.000000e+00
0.000000e+00
</DataArray>
<DataArray type="Float32" Name="V4" format="ascii">
9.000000e-01
1.000000e+00
9.000000e-01
1.000000e+00
9.000000e-01
1.000000e+00
9.000000e-01
1.000000e+00
9.000000e-01
1.000000e+00
9.000000e-01
1.000000e+00
9.000000e-01
1.000000e+00
9.000000e-01
1.000000e+00
9.000000e-01
1.000000e+00
9.000000e-01
1.000000e+00
9.000000e-01
1.000000e+00
9.000000e-01
1.000000e+00
9.000000e-01
1.000000e+00
9.000000e-01
1.000000e+00
9.000000e-01
1.000000e+00
9.000000e-01
1.000000e+00
9.000000e-01
1.000000e+00
9.000000e-01
1.000000e+00
9.000000e-01
1.000000e+00
9.000000e-01
1.000000e+00
9.000000e-01
1.000000e+00
9.000000e-01
1.000000e+00
9.000000e-01
1.000000e+00
9.000000e-01
1.000000e+00
9.000000e-01
1.000000e+00
9.000000e-01
1.000000e+00
9.000000e-01
1.000000e+00
9.000000e-01
1.000000e+00
9.000000e-01
1.000000e+00
9.000000e-01
1.000000e+00
9.000000e-01
1.000000e+00
9.000000e-01
1.000000e+00
9.000000e-01
1.000000e+00
9.000000e-01
1.000000e+00
9.000000e-01
1.000000e+00
9.000000e-01
1.000000e+00
9.000000e-01
1.000000e+00
9.000000e-01
1.000000e+00
9.000000e-01
1.000000e+00
9.000000e-01
1.000000e+00
9.000000e-01
1.000000e+00
9.000000e-01
1.000000e+00
9.000000e-01
1.000000e+00
9.000000e-01
1.000000e+00
9.000000e-01
1.000000e+00
9.000000e-01
1.000000e+00
9.000000e-01
1.000000e+00
9.000000e-01
1.000000e+00
9.000000e-01
1.000000e+00
9.000000e-01
1.000000e+00
9.000000e-01
1.000000e+00
9.000000e-01
1.000000e+00
9.000000e-01
1.000000e+00
9.000000e-01
1.000000e+00
9.000000e-01
1.000000e+00
9.000000e-01
1.000000e+00
9.000000e-01
1.000000e+00
9.000000e-01
1.000000e+00
9.000000e-01
1.000000e+00
9.000000e-01
1.000000e+00
9.000000e-01
1.000000e+00
9.000000e-01
1.000000e+00
9.000000e-01
1.000000e+00
9.000000e-01
1.000000e+00
9.000000e-01
1.000000e+00
9.000000e-01
1.000000e+00
9.000000e-01
1.000000e+00
9.000000e-01
1.000000e+00
9.000000e-01
1.000000e+00
9.000000e-01
1.000000e+00
9.000000e-01
1.000000e+00
9.000000e-01
1.000000e+00
9.000000e-01
1.000000e+00
9.000000e-01
1.000000e+00
9.000000e-01
1.000000e+00
9.000000e-01
1.000000e+00
9.000000e-01
1.000000e+00
9.000000e-01
1.000000e+00
9.000000e-01
1.000000e+00
9.000000e-01
1.000000e+00
9.000000e-01
1.000000e+00
9.000000e-01
1.000000e+00
9.000000e-01
1.000000e+00
9.000000e-01
1.000000e+00
9.000000e-01
1.000000e+00
9.000000e-01
1.000000e+00
9.000000e-01
1.000000e+00
9.000000e-01
1.000000e+00
9.000000e-01
1.000000e+00
9.000000e-01
1.000000e+00
9.000000e-01
1.000000e+00
9.000000e-01
1.000000e+00
9.000000e-01
1.000000e+00
9.000000e-01
1.000000e+00
9.000000e-01
1.000000e+00
9.000000e-01
1.000000e+00
</DataArray>
<DataArray type="Float32" Name="V5" format="ascii">
0.000000e+00
0.000000e+00
3.272490e-02
3.272490e-02
3.272490e-02
3.272490e-02
6.544980e-02
6.544980e-02
6.544980e-02
6.544980e-02
9.817480e-02
9.817480e-02
9.817480e-02
9.817480e-02
1.309000e-01
1.309000e-01
1.309000e-01
1.309000e-01
1.636250e-01
1.636250e-01
1.636250e-01
1.636250e-01
1.963500e-01
1.963500e-01
1.963500e-01
1.963500e-01
2.290740e-01
2.290740e-01
2.290740e-01
2.290740e-01
2.617990e-01
2.617990e-01
2.617990e-01
2.617990e-01
2.945240e-01
2.945240e-01
2.945240e-01
2.945240e-01
3.272490e-01
3.272490e-01
3.272490e-01
3.272490e-01
3.599740e-01
3.599740e-01
3.599740e-01
3.599740e-01
3.926990e-01
3.926990e-01
3.926990e-01
3.926990e-01
4.254240e-01
4.254240e-01
4.254240e-01
4.254240e-01
4.581490e-01
4.581490e-01
4.581490e-01
4.581490e-01
4.908740e-01
4.908740e-01
4.908740e-01
4.908740e-01
5.235990e-01
5.235990e-01
5.235990e-01
5.235990e-01
5.563240e-01
5.563240e-01
5.563240e-01
5.563240e-01
5.890490e-01
5.890490e-01
5.890490e-01
5.890490e-01
6.217740e-01
6.217740e-01
6.217740e-01
6.217740e-01
6.544980e-01
6.544980e-01
6.544980e-01
6.544980e-01
6.872230e-01
6.872230e-01
6.872230e-01
6.872230e-01
7.199480e-01
7.199480e-01
7.199480e-01
7.199480e-01
7.526730e-01
7.526730e-01
7.526730e-01
7.526730e-01
7.853980e-01
7.853980e-01
7.853980e-01
7.853980e-01
8.181230e-01
8.181230e-01
8.181230e-01
8.181230e-01
8.508480e-01
8.508480e-01
8.508480e-01
8.508480e-01
8.835730e-01
8.835730e-01
8.835730e-01
8.835730e-01
9.162980e-01
9.162980e-01
9.162980e-01
9.162980e-01
9.490230e-01
9.490230e-01
9.490230e-01
9.490230e-01
9.817480e-01
9.817480e-01
9.817480e-01
9.817480e-01
1.014470e+00
1.014470e+00
1.014470e+00
1.014470e+00
1.047200e+00
1.047200e+00
1.047200e+00
1.047200e+00
1.079920e+00
1.079920e+00
1.079920e+00
1.079920e+00
1.112650e+00
1.112650e+00
1.112650e+00
1.112650e+00
1.145370e+00
1.145370e+00
1.145370e+00
1.145370e+00
1.178100e+00
1.178100e+00
1.178100e+00
1.178100e+00
1.210820e+00
1.210820e+00
1.210820e+00
1.210820e+00
1.243550e+00
1.243550e+00
1.243550e+00
1.243550e+00
1.276270e+00
1.276270e+00
1.276270e+00
1.276270e+00
1.309000e+00
1.309000e+00
1.309000e+00
1.309000e+00
1.341720e+00
1.341720e+00
1.341720e+00
1.341720e+00
1.374450e+00
1.374450e+00
1.374450e+00
1.374450e+00
1.407170e+00
1.407170e+00
1.407170e+00
1.407170e+00
1.439900e+00
1.439900e+00
1.439900e+00
1.439900e+00
1.472620e+00
1.472620e+00
1.472620e+00
1.472620e+00
1.505350e+00
1.505350e+00
1.505350e+00
1.505350e+00
1.538070e+00
1.538070e+00
1.538070e+00
1.538070e+00
1.570800e+00
1.570800e+00
</DataArray>
</PointData>
</Piece></UnstructuredGrid>
</VTKFile>
