<?xml version="1.0"?>
<VTKFile type="UnstructuredGrid" version="0.1" byte_order="LittleEndian" compressor="vtkZLibDataCompressor">
<UnstructuredGrid>
<Piece NumberOfPoints="192" NumberOfCells="48">
<Points>
<DataArray type="Float32" NumberOfComponents="3" format="ascii">
0.000000e+00 4.368960e-01 0.000000e+00
0.000000e+00 5.000000e-01 0.000000e+00
3.916500e-02 4.369070e-01 0.000000e+00
3.914810e-02 5.000000e-01 0.000000e+00
3.916500e-02 4.369070e-01 0.000000e+00
3.914810e-02 5.000000e-01 0.000000e+00
7.832990e-02 4.369400e-01 0.000000e+00
7.829600e-02 5.000000e-01 0.000000e+00
7.832990e-02 4.369400e-01 0.000000e+00
7.829600e-02 5.000000e-01 0.000000e+00
1.174940e-01 4.369940e-01 0.000000e+00
1.174430e-01 5.000000e-01 0.000000e+00
1.174940e-01 4.369940e-01 0.000000e+00
1.174430e-01 5.000000e-01 0.000000e+00
1.566580e-01 4.370710e-01 0.000000e+00
1.565900e-01 5.000000e-01 0.000000e+00
1.566580e-01 4.370710e-01 0.000000e+00
1.565900e-01 5.000000e-01 0.000000e+00
1.958200e-01 4.371700e-01 0.000000e+00
1.957360e-01 5.000000e-01 0.000000e+00
1.958200e-01 4.371700e-01 0.000000e+00
1.957360e-01 5.000000e-01 0.000000e+00
2.349810e-01 4.372900e-01 0.000000e+00
2.348800e-01 5.000000e-01 0.000000e+00
2.349810e-01 4.372900e-01 0.000000e+00
2.348800e-01 5.000000e-01 0.000000e+00
2.741380e-01 4.374310e-01 0.000000e+00
2.740210e-01 5.000000e-01 0.000000e+00
2.741380e-01 4.374310e-01 0.000000e+00
2.740210e-01 5.000000e-01 0.000000e+00
3.132950e-01 4.375950e-01 0.000000e+00
3.131610e-01 5.000000e-01 0.000000e+00
3.132950e-01 4.375950e-01 0.000000e+00
3.131610e-01 5.000000e-01 0.000000e+00
3.524490e-01 4.377790e-01 0.000000e+00
3.522990e-01 5.000000e-01 0.000000e+00
3.524490e-01 4.377790e-01 0.000000e+00
3.522990e-01 5.000000e-01 0.000000e+00
3.916000e-01 4.379850e-01 0.000000e+00
3.914340e-01 5.000000e-01 0.000000e+00
3.916000e-01 4.379850e-01 0.000000e+00
3.914340e-01 5.000000e-01 0.000000e+00
4.307470e-01 4.382120e-01 0.000000e+00
4.305660e-01 5.000000e-01 0.000000e+00
4.307470e-01 4.382120e-01 0.000000e+00
4.305660e-01 5.000000e-01 0.000000e+00
4.698910e-01 4.384590e-01 0.000000e+00
4.696940e-01 5.000000e-01 0.000000e+00
4.698910e-01 4.384590e-01 0.000000e+00
4.696940e-01 5.000000e-01 0.000000e+00
5.090300e-01 4.387280e-01 0.000000e+00
5.088180e-01 5.000000e-01 0.000000e+00
5.090300e-01 4.387280e-01 0.000000e+00
5.088180e-01 5.000000e-01 0.000000e+00
5.481650e-01 4.390160e-01 0.000000e+00
5.479380e-01 5.000000e-01 0.000000e+00
5.481650e-01 4.390160e-01 0.000000e+00
5.479380e-01 5.000000e-01 0.000000e+00
5.872930e-01 4.393250e-01 0.000000e+00
5.870520e-01 5.000000e-01 0.000000e+00
5.872930e-01 4.393250e-01 0.000000e+00
5.870520e-01 5.000000e-01 0.000000e+00
6.264160e-01 4.396530e-01 0.000000e+00
6.261610e-01 5.000000e-01 0.000000e+00
6.264160e-01 4.396530e-01 0.000000e+00
6.261610e-01 5.000000e-01 0.000000e+00
6.655320e-01 4.400010e-01 0.000000e+00
6.652630e-01 5.000000e-01 0.000000e+00
6.655320e-01 4.400010e-01 0.000000e+00
6.652630e-01 5.000000e-01 0.000000e+00
7.046400e-01 4.403680e-01 0.000000e+00
7.043570e-01 5.000000e-01 0.000000e+00
7.046400e-01 4.403680e-01 0.000000e+00
7.043570e-01 5.000000e-01 0.000000e+00
7.437400e-01 4.407540e-01 0.000000e+00
7.434440e-01 5.000000e-01 0.000000e+00
7.437400e-01 4.407540e-01 0.000000e+00
7.434440e-01 5.000000e-01 0.000000e+00
7.828300e-01 4.411590e-01 0.000000e+00
7.825210e-01 5.000000e-01 0.000000e+00
7.828300e-01 4.411590e-01 0.000000e+00
7.825210e-01 5.000000e-01 0.000000e+00
8.219100e-01 4.415820e-01 0.000000e+00
8.215890e-01 5.000000e-01 0.000000e+00
8.219100e-01 4.415820e-01 0.000000e+00
8.215890e-01 5.000000e-01 0.000000e+00
8.609790e-01 4.420230e-01 0.000000e+00
8.606470e-01 5.000000e-01 0.000000e+00
8.609790e-01 4.420230e-01 0.000000e+00
8.606470e-01 5.000000e-01 0.000000e+00
9.000340e-01 4.424830e-01 0.000000e+00
8.996960e-01 5.000000e-01 0.000000e+00
9.000340e-01 4.424830e-01 0.000000e+00
8.996960e-01 5.000000e-01 0.000000e+00
9.390700e-01 4.429650e-01 0.000000e+00
9.387440e-01 5.000000e-01 0.000000e+00
9.390700e-01 4.429650e-01 0.000000e+00
9.387440e-01 5.000000e-01 0.000000e+00
9.780730e-01 4.434710e-01 0.000000e+00
9.778100e-01 5.000000e-01 0.000000e+00
9.780730e-01 4.434710e-01 0.000000e+00
9.778100e-01 5.000000e-01 0.000000e+00
1.017000e+00 4.440030e-01 0.000000e+00
1.016940e+00 5.000000e-01 0.000000e+00
1.017000e+00 4.440030e-01 0.000000e+00
1.016940e+00 5.000000e-01 0.000000e+00
1.055750e+00 4.445470e-01 0.000000e+00
1.056240e+00 5.000000e-01 0.000000e+00
1.055750e+00 4.445470e-01 0.000000e+00
1.056240e+00 5.000000e-01 0.000000e+00
1.094070e+00 4.450010e-01 0.000000e+00
1.095850e+00 5.000000e-01 0.000000e+00
1.094070e+00 4.450010e-01 0.000000e+00
1.095850e+00 5.000000e-01 0.000000e+00
1.131510e+00 4.449750e-01 0.000000e+00
1.135790e+00 5.000000e-01 0.000000e+00
1.131510e+00 4.449750e-01 0.000000e+00
1.135790e+00 5.000000e-01 0.000000e+00
1.167970e+00 4.435100e-01 0.000000e+00
1.175240e+00 4.991420e-01 0.000000e+00
1.167970e+00 4.435100e-01 0.000000e+00
1.175240e+00 4.991420e-01 0.000000e+00
1.203220e+00 4.392590e-01 0.000000e+00
1.214170e+00 4.938730e-01 0.000000e+00
1.203220e+00 4.392590e-01 0.000000e+00
1.214170e+00 4.938730e-01 0.000000e+00
1.237350e+00 4.317420e-01 0.000000e+00
1.252740e+00 4.846700e-01 0.000000e+00
1.237350e+00 4.317420e-01 0.000000e+00
1.252740e+00 4.846700e-01 0.000000e+00
1.270410e+00 4.209290e-01 0.000000e+00
1.290360e+00 4.717120e-01 0.000000e+00
1.270410e+00 4.209290e-01 0.000000e+00
1.290360e+00 4.717120e-01 0.000000e+00
1.302290e+00 4.069550e-01 0.000000e+00
1.326590e+00 4.552100e-01 0.000000e+00
1.302290e+00 4.069550e-01 0.000000e+00
1.326590e+00 4.552100e-01 0.000000e+00
1.332770e+00 3.900190e-01 0.000000e+00
1.361080e+00 4.354450e-01 0.000000e+00
1.332770e+00 3.900190e-01 0.000000e+00
1.361080e+00 4.354450e-01 0.000000e+00
1.361680e+00 3.703230e-01 0.000000e+00
1.393610e+00 4.126930e-01 0.000000e+00
1.361680e+00 3.703230e-01 0.000000e+00
1.393610e+00 4.126930e-01 0.000000e+00
1.388820e+00 3.481050e-01 0.000000e+00
1.423980e+00 3.872510e-01 0.000000e+00
1.388820e+00 3.481050e-01 0.000000e+00
1.423980e+00 3.872510e-01 0.000000e+00
1.414040e+00 3.235800e-01 0.000000e+00
1.452070e+00 3.593780e-01 0.000000e+00
1.414040e+00 3.235800e-01 0.000000e+00
1.452070e+00 3.593780e-01 0.000000e+00
1.437200e+00 2.969910e-01 0.000000e+00
1.477730e+00 3.293510e-01 0.000000e+00
1.437200e+00 2.969910e-01 0.000000e+00
1.477730e+00 3.293510e-01 0.000000e+00
1.458190e+00 2.685450e-01 0.000000e+00
1.500910e+00 2.974040e-01 0.000000e+00
1.458190e+00 2.685450e-01 0.000000e+00
1.500910e+00 2.974040e-01 0.000000e+00
1.476910e+00 2.384800e-01 0.000000e+00
1.521500e+00 2.637920e-01 0.000000e+00
1.476910e+00 2.384800e-01 0.000000e+00
1.521500e+00 2.637920e-01 0.000000e+00
1.493280e+00 2.069930e-01 0.000000e+00
1.539450e+00 2.287270e-01 0.000000e+00
1.493280e+00 2.069930e-01 0.000000e+00
1.539450e+00 2.287270e-01 0.000000e+00
1.507240e+00 1.743140e-01 0.000000e+00
1.554720e+00 1.924490e-01 0.000000e+00
1.507240e+00 1.743140e-01 0.000000e+00
1.554720e+00 1.924490e-01 0.000000e+00
1.518730e+00 1.406310e-01 0.000000e+00
1.567260e+00 1.551500e-01 0.000000e+00
1.518730e+00 1.406310e-01 0.000000e+00
1.567260e+00 1.551500e-01 0.000000e+00
1.527700e+00 1.061660e-01 0.000000e+00
1.577050e+00 1.170620e-01 0.000000e+00
1.527700e+00 1.061660e-01 0.000000e+00
1.577050e+00 1.170620e-01 0.000000e+00
1.534140e+00 7.109890e-02 0.000000e+00
1.584050e+00 7.836540e-02 0.000000e+00
1.534140e+00 7.109890e-02 0.000000e+00
1.584050e+00 7.836540e-02 0.000000e+00
1.538010e+00 3.565010e-02 0.000000e+00
1.588260e+00 3.928450e-02 0.000000e+00
1.538010e+00 3.565010e-02 0.000000e+00
1.588260e+00 3.928450e-02 0.000000e+00
1.539300e+00 -5.654160e-06 0.000000e+00
1.589670e+00 -5.839170e-06 0.000000e+00
</DataArray>
</Points>
<Cells>
<DataArray type="Int32" Name="connectivity" format="ascii">
0 1 3 2
4 5 7 6
8 9 11 10
12 13 15 14
16 17 19 18
20 21 23 22
24 25 27 26
28 29 31 30
32 33 35 34
36 37 39 38
40 41 43 42
44 45 47 46
48 49 51 50
52 53 55 54
56 57 59 58
60 61 63 62
64 65 67 66
68 69 71 70
72 73 75 74
76 77 79 78
80 81 83 82
84 85 87 86
88 89 91 90
92 93 95 94
96 97 99 98
100 101 103 102
104 105 107 106
108 109 111 110
112 113 115 114
116 117 119 118
120 121 123 122
124 125 127 126
128 129 131 130
132 133 135 134
136 137 139 138
140 141 143 142
144 145 147 146
148 149 151 150
152 153 155 154
156 157 159 158
160 161 163 162
164 165 167 166
168 169 171 170
172 173 175 174
176 177 179 178
180 181 183 182
184 185 187 186
188 189 191 190
</DataArray>
<DataArray type="Int32" Name="offsets" format="ascii">
4
8
12
16
20
24
28
32
36
40
44
48
52
56
60
64
68
72
76
80
84
88
92
96
100
104
108
112
116
120
124
128
132
136
140
144
148
152
156
160
164
168
172
176
180
184
188
192
</DataArray>
<DataArray type="UInt8" Name="types" format="ascii">
9
9
9
9
9
9
9
9
9
9
9
9
9
9
9
9
9
9
9
9
9
9
9
9
9
9
9
9
9
9
9
9
9
9
9
9
9
9
9
9
9
9
9
9
9
9
9
9
</DataArray>
</Cells>
<PointData>
<DataArray type="Float32" Name="V1" format="ascii">
4.731520e+00
2.077130e+00
4.734090e+00
2.079700e+00
4.734780e+00
2.079400e+00
4.740970e+00
2.085590e+00
4.742290e+00
2.084850e+00
4.752930e+00
2.095490e+00
4.754700e+00
2.094180e+00
4.769750e+00
2.109240e+00
4.772030e+00
2.107390e+00
4.791500e+00
2.126860e+00
4.794300e+00
2.124480e+00
4.818200e+00
2.148380e+00
4.821550e+00
2.145480e+00
4.849910e+00
2.173840e+00
4.853810e+00
2.170400e+00
4.886680e+00
2.203260e+00
4.891160e+00
2.199280e+00
4.928580e+00
2.236700e+00
4.933660e+00
2.232160e+00
4.975690e+00
2.274190e+00
4.981380e+00
2.269080e+00
5.028080e+00
2.315780e+00
5.034410e+00
2.310090e+00
5.085860e+00
2.361540e+00
5.092840e+00
2.355250e+00
5.149120e+00
2.411530e+00
5.156780e+00
2.404620e+00
5.217990e+00
2.465820e+00
5.226360e+00
2.458260e+00
5.292590e+00
2.524490e+00
5.301690e+00
2.516260e+00
5.373060e+00
2.587630e+00
5.382930e+00
2.578700e+00
5.459550e+00
2.655320e+00
5.470220e+00
2.645660e+00
5.552220e+00
2.727660e+00
5.563750e+00
2.717240e+00
5.651270e+00
2.804770e+00
5.663690e+00
2.793550e+00
5.756880e+00
2.886740e+00
5.770240e+00
2.874680e+00
5.869260e+00
2.973700e+00
5.883570e+00
2.960790e+00
5.988550e+00
3.065780e+00
6.003630e+00
3.052190e+00
6.114680e+00
3.163240e+00
6.129690e+00
3.149730e+00
6.246820e+00
3.266870e+00
6.258840e+00
3.256050e+00
6.381970e+00
3.379170e+00
6.382310e+00
3.378730e+00
6.511440e+00
3.507850e+00
6.477020e+00
3.538100e+00
6.613640e+00
3.674720e+00
6.490050e+00
3.783280e+00
6.642810e+00
3.936040e+00
6.323890e+00
4.215600e+00
6.526080e+00
4.417800e+00
5.920690e+00
4.992350e+00
6.185190e+00
5.256860e+00
5.701150e+00
5.683100e+00
5.869870e+00
5.851820e+00
5.680050e+00
6.015330e+00
5.837570e+00
6.172840e+00
5.768710e+00
6.234780e+00
5.925170e+00
6.391240e+00
5.911870e+00
6.403430e+00
6.065120e+00
6.556690e+00
6.077450e+00
6.545800e+00
6.225370e+00
6.693720e+00
6.248770e+00
6.672790e+00
6.389830e+00
6.813850e+00
6.417270e+00
6.789320e+00
6.550130e+00
6.922170e+00
6.578120e+00
6.897120e+00
6.701820e+00
7.020810e+00
6.728690e+00
6.996810e+00
6.842360e+00
7.110480e+00
6.867230e+00
7.088240e+00
6.970280e+00
7.191280e+00
6.992760e+00
7.171220e+00
7.084610e+00
7.263070e+00
7.104460e+00
7.245360e+00
7.184760e+00
7.325660e+00
7.201870e+00
7.310410e+00
7.270260e+00
7.378800e+00
7.284560e+00
7.366050e+00
7.340830e+00
7.422310e+00
7.352300e+00
7.412100e+00
7.396230e+00
7.456030e+00
7.404840e+00
7.448360e+00
7.436320e+00
7.479830e+00
7.442070e+00
7.474720e+00
7.460990e+00
7.493640e+00
7.463860e+00
7.491080e+00
7.470170e+00
7.497390e+00
</DataArray>
<DataArray type="Float32" Name="V2" format="ascii">
4.368960e-01
5.000000e-01
4.379540e-01
5.010130e-01
4.379540e-01
5.010130e-01
4.411270e-01
5.040500e-01
4.411270e-01
5.040500e-01
4.464070e-01
5.091040e-01
4.464070e-01
5.091040e-01
4.537800e-01
5.161620e-01
4.537800e-01
5.161620e-01
4.632290e-01
5.252060e-01
4.632290e-01
5.252060e-01
4.747300e-01
5.362150e-01
4.747300e-01
5.362150e-01
4.882550e-01
5.491620e-01
4.882550e-01
5.491620e-01
5.037710e-01
5.640150e-01
5.037710e-01
5.640150e-01
5.212390e-01
5.807370e-01
5.212390e-01
5.807370e-01
5.406170e-01
5.992870e-01
5.406170e-01
5.992870e-01
5.618560e-01
6.196200e-01
5.618560e-01
6.196200e-01
5.849030e-01
6.416840e-01
5.849030e-01
6.416840e-01
6.097010e-01
6.654250e-01
6.097010e-01
6.654250e-01
6.361890e-01
6.907830e-01
6.361890e-01
6.907830e-01
6.642980e-01
7.176950e-01
6.642980e-01
7.176950e-01
6.939590e-01
7.460930e-01
6.939590e-01
7.460930e-01
7.250960e-01
7.759050e-01
7.250960e-01
7.759050e-01
7.576300e-01
8.070550e-01
7.576300e-01
8.070550e-01
7.914780e-01
8.394630e-01
7.914780e-01
8.394630e-01
8.265510e-01
8.730450e-01
8.265510e-01
8.730450e-01
8.627610e-01
9.077150e-01
8.627610e-01
9.077150e-01
9.000130e-01
9.433840e-01
9.000130e-01
9.433840e-01
9.382090e-01
9.799570e-01
9.382090e-01
9.799570e-01
9.772460e-01
1.017350e+00
9.772460e-01
1.017350e+00
1.017010e+00
1.055460e+00
1.017010e+00
1.055460e+00
1.057370e+00
1.094250e+00
1.057370e+00
1.094250e+00
1.098120e+00
1.133680e+00
1.098120e+00
1.133680e+00
1.138880e+00
1.173780e+00
1.138880e+00
1.173780e+00
1.178930e+00
1.214460e+00
1.178930e+00
1.214460e+00
1.217530e+00
1.254480e+00
1.217530e+00
1.254480e+00
1.253730e+00
1.291870e+00
1.253730e+00
1.291870e+00
1.287440e+00
1.327240e+00
1.287440e+00
1.327240e+00
1.318830e+00
1.360360e+00
1.318830e+00
1.360360e+00
1.347980e+00
1.391120e+00
1.347980e+00
1.391120e+00
1.374940e+00
1.419470e+00
1.374940e+00
1.419470e+00
1.399750e+00
1.445460e+00
1.399750e+00
1.445460e+00
1.422420e+00
1.469120e+00
1.422420e+00
1.469120e+00
1.443010e+00
1.490520e+00
1.443010e+00
1.490520e+00
1.461520e+00
1.509710e+00
1.461520e+00
1.509710e+00
1.478010e+00
1.526740e+00
1.478010e+00
1.526740e+00
1.492480e+00
1.541650e+00
1.492480e+00
1.541650e+00
1.504970e+00
1.554500e+00
1.504970e+00
1.554500e+00
1.515500e+00
1.565300e+00
1.515500e+00
1.565300e+00
1.524090e+00
1.574110e+00
1.524090e+00
1.574110e+00
1.530750e+00
1.580930e+00
1.530750e+00
1.580930e+00
1.535500e+00
1.585790e+00
1.535500e+00
1.585790e+00
1.538350e+00
1.588700e+00
1.538350e+00
1.588700e+00
1.539300e+00
1.589670e+00
</DataArray>
<DataArray type="Float32" Name="V3" format="ascii">
0.000000e+00
0.000000e+00
2.484890e-02
2.276760e-02
2.484890e-02
2.276760e-02
4.958500e-02
4.542680e-02
4.958500e-02
4.542680e-02
7.409550e-02
6.786930e-02
7.409550e-02
6.786930e-02
9.826830e-02
8.998740e-02
9.826830e-02
8.998740e-02
1.219910e-01
1.116730e-01
1.219910e-01
1.116730e-01
1.451540e-01
1.328210e-01
1.451540e-01
1.328210e-01
1.676470e-01
1.533250e-01
1.676470e-01
1.533250e-01
1.893620e-01
1.730810e-01
1.893620e-01
1.730810e-01
2.101920e-01
1.919870e-01
2.101920e-01
1.919870e-01
2.300320e-01
2.099410e-01
2.300320e-01
2.099410e-01
2.487790e-01
2.268440e-01
2.487790e-01
2.268440e-01
2.663310e-01
2.425990e-01
2.663310e-01
2.425990e-01
2.825910e-01
2.571110e-01
2.825910e-01
2.571110e-01
2.974620e-01
2.702860e-01
2.974620e-01
2.702860e-01
3.108500e-01
2.820350e-01
3.108500e-01
2.820350e-01
3.226650e-01
2.922710e-01
3.226650e-01
2.922710e-01
3.328210e-01
3.009080e-01
3.328210e-01
3.009080e-01
3.412310e-01
3.078660e-01
3.412310e-01
3.078660e-01
3.478170e-01
3.130670e-01
3.478170e-01
3.130670e-01
3.525000e-01
3.164350e-01
3.525000e-01
3.164350e-01
3.552090e-01
3.179000e-01
3.552090e-01
3.179000e-01
3.558720e-01
3.173960e-01
3.558720e-01
3.173960e-01
3.544240e-01
3.148600e-01
3.544240e-01
3.148600e-01
3.508000e-01
3.102390e-01
3.508000e-01
3.102390e-01
3.449300e-01
3.034920e-01
3.449300e-01
3.034920e-01
3.367370e-01
2.945970e-01
3.367370e-01
2.945970e-01
3.261220e-01
2.835660e-01
3.261220e-01
2.835660e-01
3.129850e-01
2.704330e-01
3.129850e-01
2.704330e-01
2.973830e-01
2.551490e-01
2.973830e-01
2.551490e-01
2.801240e-01
2.379050e-01
2.801240e-01
2.379050e-01
2.623640e-01
2.217690e-01
2.623640e-01
2.217690e-01
2.447700e-01
2.066310e-01
2.447700e-01
2.066310e-01
2.276440e-01
1.922610e-01
2.276440e-01
1.922610e-01
2.109980e-01
1.784660e-01
2.109980e-01
1.784660e-01
1.947940e-01
1.650990e-01
1.947940e-01
1.650990e-01
1.789550e-01
1.520300e-01
1.789550e-01
1.520300e-01
1.634200e-01
1.391710e-01
1.634200e-01
1.391710e-01
1.481160e-01
1.264420e-01
1.481160e-01
1.264420e-01
1.329960e-01
1.137970e-01
1.329960e-01
1.137970e-01
1.180080e-01
1.011890e-01
1.180080e-01
1.011890e-01
1.031230e-01
8.859710e-02
1.031230e-01
8.859710e-02
8.830420e-02
7.599580e-02
8.830420e-02
7.599580e-02
7.353850e-02
6.338140e-02
7.353850e-02
6.338140e-02
5.880110e-02
5.074100e-02
5.880110e-02
5.074100e-02
4.408910e-02
3.808190e-02
4.408910e-02
3.808190e-02
2.938540e-02
2.539890e-02
2.938540e-02
2.539890e-02
1.469340e-02
1.270520e-02
1.469340e-02
1.270520e-02
0.000000e+00
0.000000e+00
</DataArray>
<DataArray type="Float32" Name="V4" format="ascii">
9.000000e-01
1.000000e+00
9.000000e-01
1.000000e+00
9.000000e-01
1.000000e+00
9.000000e-01
1.000000e+00
9.000000e-01
1.000000e+00
9.000000e-01
1.000000e+00
9.000000e-01
1.000000e+00
9.000000e-01
1.000000e+00
9.000000e-01
1.000000e+00
9.000000e-01
1.000000e+00
9.000000e-01
1.000000e+00
9.000000e-01
1.000000e+00
9.000000e-01
1.000000e+00
9.000000e-01
1.000000e+00
9.000000e-01
1.000000e+00
9.000000e-01
1.000000e+00
9.000000e-01
1.000000e+00
9.000000e-01
1.000000e+00
9.000000e-01
1.000000e+00
9.000000e-01
1.000000e+00
9.000000e-01
1.000000e+00
9.000000e-01
1.000000e+00
9.000000e-01
1.000000e+00
9.000000e-01
1.000000e+00
9.000000e-01
1.000000e+00
9.000000e-01
1.000000e+00
9.000000e-01
1.000000e+00
9.000000e-01
1.000000e+00
9.000000e-01
1.000000e+00
9.000000e-01
1.000000e+00
9.000000e-01
1.000000e+00
9.000000e-01
1.000000e+00
9.000000e-01
1.000000e+00
9.000000e-01
1.000000e+00
9.000000e-01
1.000000e+00
9.000000e-01
1.000000e+00
9.000000e-01
1.000000e+00
9.000000e-01
1.000000e+00
9.000000e-01
1.000000e+00
9.000000e-01
1.000000e+00
9.000000e-01
1.000000e+00
9.000000e-01
1.000000e+00
9.000000e-01
1.000000e+00
9.000000e-01
1.000000e+00
9.000000e-01
1.000000e+00
9.000000e-01
1.000000e+00
9.000000e-01
1.000000e+00
9.000000e-01
1.000000e+00
9.000000e-01
1.000000e+00
9.000000e-01
1.000000e+00
9.000000e-01
1.000000e+00
9.000000e-01
1.000000e+00
9.000000e-01
1.000000e+00
9.000000e-01
1.000000e+00
9.000000e-01
1.000000e+00
9.000000e-01
1.000000e+00
9.000000e-01
1.000000e+00
9.000000e-01
1.000000e+00
9.000000e-01
1.000000e+00
9.000000e-01
1.000000e+00
9.000000e-01
1.000000e+00
9.000000e-01
1.000000e+00
9.000000e-01
1.000000e+00
9.000000e-01
1.000000e+00
9.000000e-01
1.000000e+00
9.000000e-01
1.000000e+00
9.000000e-01
1.000000e+00
9.000000e-01
1.000000e+00
9.000000e-01
1.000000e+00
9.000000e-01
1.000000e+00
9.000000e-01
1.000000e+00
9.000000e-01
1.000000e+00
9.000000e-01
1.000000e+00
9.000000e-01
1.000000e+00
9.000000e-01
1.000000e+00
9.000000e-01
1.000000e+00
9.000000e-01
1.000000e+00
9.000000e-01
1.000000e+00
9.000000e-01
1.000000e+00
9.000000e-01
1.000000e+00
9.000000e-01
1.000000e+00
9.000000e-01
1.000000e+00
9.000000e-01
1.000000e+00
9.000000e-01
1.000000e+00
9.000000e-01
1.000000e+00
9.000000e-01
1.000000e+00
9.000000e-01
1.000000e+00
9.000000e-01
1.000000e+00
9.000000e-01
1.000000e+00
9.000000e-01
1.000000e+00
9.000000e-01
1.000000e+00
9.000000e-01
1.000000e+00
9.000000e-01
1.000000e+00
9.000000e-01
1.000000e+00
9.000000e-01
1.000000e+00
9.000000e-01
1.000000e+00
</DataArray>
<DataArray type="Float32" Name="V5" format="ascii">
0.000000e+00
0.000000e+00
3.272490e-02
3.272490e-02
3.272490e-02
3.272490e-02
6.544980e-02
6.544980e-02
6.544980e-02
6.544980e-02
9.817480e-02
9.817480e-02
9.817480e-02
9.817480e-02
1.309000e-01
1.309000e-01
1.309000e-01
1.309000e-01
1.636250e-01
1.636250e-01
1.636250e-01
1.636250e-01
1.963500e-01
1.963500e-01
1.963500e-01
1.963500e-01
2.290740e-01
2.290740e-01
2.290740e-01
2.290740e-01
2.617990e-01
2.617990e-01
2.617990e-01
2.617990e-01
2.945240e-01
2.945240e-01
2.945240e-01
2.945240e-01
3.272490e-01
3.272490e-01
3.272490e-01
3.272490e-01
3.599740e-01
3.599740e-01
3.599740e-01
3.599740e-01
3.926990e-01
3.926990e-01
3.926990e-01
3.926990e-01
4.254240e-01
4.254240e-01
4.254240e-01
4.254240e-01
4.581490e-01
4.581490e-01
4.581490e-01
4.581490e-01
4.908740e-01
4.908740e-01
4.908740e-01
4.908740e-01
5.235990e-01
5.235990e-01
5.235990e-01
5.235990e-01
5.563240e-01
5.563240e-01
5.563240e-01
5.563240e-01
5.890490e-01
5.890490e-01
5.890490e-01
5.890490e-01
6.217740e-01
6.217740e-01
6.217740e-01
6.217740e-01
6.544980e-01
6.544980e-01
6.544980e-01
6.544980e-01
6.872230e-01
6.872230e-01
6.872230e-01
6.872230e-01
7.199480e-01
7.199480e-01
7.199480e-01
7.199480e-01
7.526730e-01
7.526730e-01
7.526730e-01
7.526730e-01
7.853980e-01
7.853980e-01
7.853980e-01
7.853980e-01
8.181230e-01
8.181230e-01
8.181230e-01
8.181230e-01
8.508480e-01
8.508480e-01
8.508480e-01
8.508480e-01
8.835730e-01
8.835730e-01
8.835730e-01
8.835730e-01
9.162980e-01
9.162980e-01
9.162980e-01
9.162980e-01
9.490230e-01
9.490230e-01
9.490230e-01
9.490230e-01
9.817480e-01
9.817480e-01
9.817480e-01
9.817480e-01
1.014470e+00
1.014470e+00
1.014470e+00
1.014470e+00
1.047200e+00
1.047200e+00
1.047200e+00
1.047200e+00
1.079920e+00
1.079920e+00
1.079920e+00
1.079920e+00
1.112650e+00
1.112650e+00
1.112650e+00
1.112650e+00
1.145370e+00
1.145370e+00
1.145370e+00
1.145370e+00
1.178100e+00
1.178100e+00
1.178100e+00
1.178100e+00
1.210820e+00
1.210820e+00
1.210820e+00
1.210820e+00
1.243550e+00
1.243550e+00
1.243550e+00
1.243550e+00
1.276270e+00
1.276270e+00
1.276270e+00
1.276270e+00
1.309000e+00
1.309000e+00
1.309000e+00
1.309000e+00
1.341720e+00
1.341720e+00
1.341720e+00
1.341720e+00
1.374450e+00
1.374450e+00
1.374450e+00
1.374450e+00
1.407170e+00
1.407170e+00
1.407170e+00
1.407170e+00
1.439900e+00
1.439900e+00
1.439900e+00
1.439900e+00
1.472620e+00
1.472620e+00
1.472620e+00
1.472620e+00
1.505350e+00
1.505350e+00
1.505350e+00
1.505350e+00
1.538070e+00
1.538070e+00
1.538070e+00
1.538070e+00
1.570800e+00
1.570800e+00
</DataArray>
</PointData>
</Piece></UnstructuredGrid>
</VTKFile>
