<?xml version="1.0"?>
<VTKFile type="UnstructuredGrid" version="0.1" byte_order="LittleEndian" compressor="vtkZLibDataCompressor">
<UnstructuredGrid>
<Piece NumberOfPoints="192" NumberOfCells="48">
<Points>
<DataArray type="Float32" NumberOfComponents="3" format="ascii">
0.000000e+00 4.215330e-01 0.000000e+00
0.000000e+00 4.800000e-01 0.000000e+00
4.068650e-02 4.215430e-01 0.000000e+00
4.067180e-02 4.800000e-01 0.000000e+00
4.068650e-02 4.215430e-01 0.000000e+00
4.067180e-02 4.800000e-01 0.000000e+00
8.137280e-02 4.215740e-01 0.000000e+00
8.134350e-02 4.800000e-01 0.000000e+00
8.137280e-02 4.215740e-01 0.000000e+00
8.134350e-02 4.800000e-01 0.000000e+00
1.220590e-01 4.216250e-01 0.000000e+00
1.220150e-01 4.800000e-01 0.000000e+00
1.220590e-01 4.216250e-01 0.000000e+00
1.220150e-01 4.800000e-01 0.000000e+00
1.627450e-01 4.216970e-01 0.000000e+00
1.626860e-01 4.800000e-01 0.000000e+00
1.627450e-01 4.216970e-01 0.000000e+00
1.626860e-01 4.800000e-01 0.000000e+00
2.034290e-01 4.217890e-01 0.000000e+00
2.033570e-01 4.800000e-01 0.000000e+00
2.034290e-01 4.217890e-01 0.000000e+00
2.033570e-01 4.800000e-01 0.000000e+00
2.441130e-01 4.219020e-01 0.000000e+00
2.440260e-01 4.800000e-01 0.000000e+00
2.441130e-01 4.219020e-01 0.000000e+00
2.440260e-01 4.800000e-01 0.000000e+00
2.847940e-01 4.220340e-01 0.000000e+00
2.846930e-01 4.800000e-01 0.000000e+00
2.847940e-01 4.220340e-01 0.000000e+00
2.846930e-01 4.800000e-01 0.000000e+00
3.254750e-01 4.221870e-01 0.000000e+00
3.253600e-01 4.800000e-01 0.000000e+00
3.254750e-01 4.221870e-01 0.000000e+00
3.253600e-01 4.800000e-01 0.000000e+00
3.661540e-01 4.223600e-01 0.000000e+00
3.660250e-01 4.800000e-01 0.000000e+00
3.661540e-01 4.223600e-01 0.000000e+00
3.660250e-01 4.800000e-01 0.000000e+00
4.068310e-01 4.225520e-01 0.000000e+00
4.066880e-01 4.800000e-01 0.000000e+00
4.068310e-01 4.225520e-01 0.000000e+00
4.066880e-01 4.800000e-01 0.000000e+00
4.475060e-01 4.227640e-01 0.000000e+00
4.473490e-01 4.800000e-01 0.000000e+00
4.475060e-01 4.227640e-01 0.000000e+00
4.473490e-01 4.800000e-01 0.000000e+00
4.881770e-01 4.229960e-01 0.000000e+00
4.880070e-01 4.800000e-01 0.000000e+00
4.881770e-01 4.229960e-01 0.000000e+00
4.880070e-01 4.800000e-01 0.000000e+00
5.288450e-01 4.232460e-01 0.000000e+00
5.286620e-01 4.800000e-01 0.000000e+00
5.288450e-01 4.232460e-01 0.000000e+00
5.286620e-01 4.800000e-01 0.000000e+00
5.695090e-01 4.235150e-01 0.000000e+00
5.693130e-01 4.800000e-01 0.000000e+00
5.695090e-01 4.235150e-01 0.000000e+00
5.693130e-01 4.800000e-01 0.000000e+00
6.101680e-01 4.238030e-01 0.000000e+00
6.099590e-01 4.800000e-01 0.000000e+00
6.101680e-01 4.238030e-01 0.000000e+00
6.099590e-01 4.800000e-01 0.000000e+00
6.508210e-01 4.241090e-01 0.000000e+00
6.506010e-01 4.800000e-01 0.000000e+00
6.508210e-01 4.241090e-01 0.000000e+00
6.506010e-01 4.800000e-01 0.000000e+00
6.914690e-01 4.244330e-01 0.000000e+00
6.912370e-01 4.800000e-01 0.000000e+00
6.914690e-01 4.244330e-01 0.000000e+00
6.912370e-01 4.800000e-01 0.000000e+00
7.321090e-01 4.247750e-01 0.000000e+00
7.318660e-01 4.800000e-01 0.000000e+00
7.321090e-01 4.247750e-01 0.000000e+00
7.318660e-01 4.800000e-01 0.000000e+00
7.727420e-01 4.251340e-01 0.000000e+00
7.724870e-01 4.800000e-01 0.000000e+00
7.727420e-01 4.251340e-01 0.000000e+00
7.724870e-01 4.800000e-01 0.000000e+00
8.133640e-01 4.255090e-01 0.000000e+00
8.130980e-01 4.800000e-01 0.000000e+00
8.133640e-01 4.255090e-01 0.000000e+00
8.130980e-01 4.800000e-01 0.000000e+00
8.539770e-01 4.259010e-01 0.000000e+00
8.537000e-01 4.800000e-01 0.000000e+00
8.539770e-01 4.259010e-01 0.000000e+00
8.537000e-01 4.800000e-01 0.000000e+00
8.945780e-01 4.263100e-01 0.000000e+00
8.942910e-01 4.800000e-01 0.000000e+00
8.945780e-01 4.263100e-01 0.000000e+00
8.942910e-01 4.800000e-01 0.000000e+00
9.351660e-01 4.267340e-01 0.000000e+00
9.348700e-01 4.800000e-01 0.000000e+00
9.351660e-01 4.267340e-01 0.000000e+00
9.348700e-01 4.800000e-01 0.000000e+00
9.757370e-01 4.271740e-01 0.000000e+00
9.754370e-01 4.800000e-01 0.000000e+00
9.757370e-01 4.271740e-01 0.000000e+00
9.754370e-01 4.800000e-01 0.000000e+00
1.016290e+00 4.276310e-01 0.000000e+00
1.016000e+00 4.800000e-01 0.000000e+00
1.016290e+00 4.276310e-01 0.000000e+00
1.016000e+00 4.800000e-01 0.000000e+00
1.056810e+00 4.281080e-01 0.000000e+00
1.056560e+00 4.800000e-01 0.000000e+00
1.056810e+00 4.281080e-01 0.000000e+00
1.056560e+00 4.800000e-01 0.000000e+00
1.097270e+00 4.286070e-01 0.000000e+00
1.097160e+00 4.800000e-01 0.000000e+00
1.097270e+00 4.286070e-01 0.000000e+00
1.097160e+00 4.800000e-01 0.000000e+00
1.137580e+00 4.291210e-01 0.000000e+00
1.137890e+00 4.800000e-01 0.000000e+00
1.137580e+00 4.291210e-01 0.000000e+00
1.137890e+00 4.800000e-01 0.000000e+00
1.177540e+00 4.295890e-01 0.000000e+00
1.178890e+00 4.800000e-01 0.000000e+00
1.177540e+00 4.295890e-01 0.000000e+00
1.178890e+00 4.800000e-01 0.000000e+00
1.216720e+00 4.297230e-01 0.000000e+00
1.220240e+00 4.800000e-01 0.000000e+00
1.216720e+00 4.297230e-01 0.000000e+00
1.220240e+00 4.800000e-01 0.000000e+00
1.254820e+00 4.286310e-01 0.000000e+00
1.261240e+00 4.796170e-01 0.000000e+00
1.254820e+00 4.286310e-01 0.000000e+00
1.261240e+00 4.796170e-01 0.000000e+00
1.291740e+00 4.246910e-01 0.000000e+00
1.301410e+00 4.749060e-01 0.000000e+00
1.291740e+00 4.246910e-01 0.000000e+00
1.301410e+00 4.749060e-01 0.000000e+00
1.327360e+00 4.171920e-01 0.000000e+00
1.341210e+00 4.658470e-01 0.000000e+00
1.327360e+00 4.171920e-01 0.000000e+00
1.341210e+00 4.658470e-01 0.000000e+00
1.361830e+00 4.060720e-01 0.000000e+00
1.380060e+00 4.526900e-01 0.000000e+00
1.361830e+00 4.060720e-01 0.000000e+00
1.380060e+00 4.526900e-01 0.000000e+00
1.394960e+00 3.915000e-01 0.000000e+00
1.417390e+00 4.356840e-01 0.000000e+00
1.394960e+00 3.915000e-01 0.000000e+00
1.417390e+00 4.356840e-01 0.000000e+00
1.426550e+00 3.736840e-01 0.000000e+00
1.452850e+00 4.151190e-01 0.000000e+00
1.426550e+00 3.736840e-01 0.000000e+00
1.452850e+00 4.151190e-01 0.000000e+00
1.456350e+00 3.528800e-01 0.000000e+00
1.486140e+00 3.913280e-01 0.000000e+00
1.456350e+00 3.528800e-01 0.000000e+00
1.486140e+00 3.913280e-01 0.000000e+00
1.484160e+00 3.293330e-01 0.000000e+00
1.517050e+00 3.646140e-01 0.000000e+00
1.484160e+00 3.293330e-01 0.000000e+00
1.517050e+00 3.646140e-01 0.000000e+00
1.509790e+00 3.033190e-01 0.000000e+00
1.545410e+00 3.353010e-01 0.000000e+00
1.509790e+00 3.033190e-01 0.000000e+00
1.545410e+00 3.353010e-01 0.000000e+00
1.533090e+00 2.750850e-01 0.000000e+00
1.571080e+00 3.036690e-01 0.000000e+00
1.533090e+00 2.750850e-01 0.000000e+00
1.571080e+00 3.036690e-01 0.000000e+00
1.553920e+00 2.449080e-01 0.000000e+00
1.593950e+00 2.700250e-01 0.000000e+00
1.553920e+00 2.449080e-01 0.000000e+00
1.593950e+00 2.700250e-01 0.000000e+00
1.572180e+00 2.130260e-01 0.000000e+00
1.613930e+00 2.346220e-01 0.000000e+00
1.572180e+00 2.130260e-01 0.000000e+00
1.613930e+00 2.346220e-01 0.000000e+00
1.587770e+00 1.797100e-01 0.000000e+00
1.630950e+00 1.977500e-01 0.000000e+00
1.587770e+00 1.797100e-01 0.000000e+00
1.630950e+00 1.977500e-01 0.000000e+00
1.600620e+00 1.451880e-01 0.000000e+00
1.644950e+00 1.596440e-01 0.000000e+00
1.600620e+00 1.451880e-01 0.000000e+00
1.644950e+00 1.596440e-01 0.000000e+00
1.610670e+00 1.097240e-01 0.000000e+00
1.655870e+00 1.205800e-01 0.000000e+00
1.610670e+00 1.097240e-01 0.000000e+00
1.655870e+00 1.205800e-01 0.000000e+00
1.617880e+00 7.353730e-02 0.000000e+00
1.663710e+00 8.078000e-02 0.000000e+00
1.617880e+00 7.353730e-02 0.000000e+00
1.663710e+00 8.078000e-02 0.000000e+00
1.622220e+00 3.688930e-02 0.000000e+00
1.668410e+00 4.051280e-02 0.000000e+00
1.622220e+00 3.688930e-02 0.000000e+00
1.668410e+00 4.051280e-02 0.000000e+00
1.623670e+00 -5.964060e-06 0.000000e+00
1.669990e+00 -6.134200e-06 0.000000e+00
</DataArray>
</Points>
<Cells>
<DataArray type="Int32" Name="connectivity" format="ascii">
0 1 3 2
4 5 7 6
8 9 11 10
12 13 15 14
16 17 19 18
20 21 23 22
24 25 27 26
28 29 31 30
32 33 35 34
36 37 39 38
40 41 43 42
44 45 47 46
48 49 51 50
52 53 55 54
56 57 59 58
60 61 63 62
64 65 67 66
68 69 71 70
72 73 75 74
76 77 79 78
80 81 83 82
84 85 87 86
88 89 91 90
92 93 95 94
96 97 99 98
100 101 103 102
104 105 107 106
108 109 111 110
112 113 115 114
116 117 119 118
120 121 123 122
124 125 127 126
128 129 131 130
132 133 135 134
136 137 139 138
140 141 143 142
144 145 147 146
148 149 151 150
152 153 155 154
156 157 159 158
160 161 163 162
164 165 167 166
168 169 171 170
172 173 175 174
176 177 179 178
180 181 183 182
184 185 187 186
188 189 191 190
</DataArray>
<DataArray type="Int32" Name="offsets" format="ascii">
4
8
12
16
20
24
28
32
36
40
44
48
52
56
60
64
68
72
76
80
84
88
92
96
100
104
108
112
116
120
124
128
132
136
140
144
148
152
156
160
164
168
172
176
180
184
188
192
</DataArray>
<DataArray type="UInt8" Name="types" format="ascii">
9
9
9
9
9
9
9
9
9
9
9
9
9
9
9
9
9
9
9
9
9
9
9
9
9
9
9
9
9
9
9
9
9
9
9
9
9
9
9
9
9
9
9
9
9
9
9
9
</DataArray>
</Cells>
<PointData>
<DataArray type="Float32" Name="V1" format="ascii">
5.686370e+00
2.783640e+00
5.689220e+00
2.786490e+00
5.690040e+00
2.786070e+00
5.696910e+00
2.792940e+00
5.698490e+00
2.791980e+00
5.710270e+00
2.803760e+00
5.712440e+00
2.802120e+00
5.729100e+00
2.818780e+00
5.731900e+00
2.816480e+00
5.753430e+00
2.838020e+00
5.756900e+00
2.835080e+00
5.783330e+00
2.861510e+00
5.787470e+00
2.857930e+00
5.818840e+00
2.889300e+00
5.823670e+00
2.885070e+00
5.860020e+00
2.921420e+00
5.865570e+00
2.916530e+00
5.906960e+00
2.957910e+00
5.913230e+00
2.952350e+00
5.959720e+00
2.998840e+00
5.966750e+00
2.992580e+00
6.018410e+00
3.044250e+00
6.026210e+00
3.037290e+00
6.083130e+00
3.094210e+00
6.091730e+00
3.086530e+00
6.154000e+00
3.148800e+00
6.163420e+00
3.140370e+00
6.231140e+00
3.208090e+00
6.241410e+00
3.198900e+00
6.314690e+00
3.272180e+00
6.325850e+00
3.262190e+00
6.404810e+00
3.341160e+00
6.416890e+00
3.330340e+00
6.501670e+00
3.415130e+00
6.514700e+00
3.403460e+00
6.605440e+00
3.494200e+00
6.619470e+00
3.481650e+00
6.716320e+00
3.578500e+00
6.731390e+00
3.565030e+00
6.834520e+00
3.668160e+00
6.850670e+00
3.653720e+00
6.960270e+00
3.763320e+00
6.977540e+00
3.747880e+00
7.093790e+00
3.864130e+00
7.112200e+00
3.847690e+00
7.235280e+00
3.970780e+00
7.254690e+00
3.953460e+00
7.384800e+00
4.083560e+00
7.404550e+00
4.065960e+00
7.541820e+00
4.203230e+00
7.559590e+00
4.187400e+00
7.704100e+00
4.331910e+00
7.712720e+00
4.324150e+00
7.864600e+00
4.476030e+00
7.844080e+00
4.493860e+00
8.004260e+00
4.654040e+00
7.904440e+00
4.741190e+00
8.078300e+00
4.915050e+00
7.792670e+00
5.164370e+00
8.002710e+00
5.374400e+00
7.395520e+00
5.921180e+00
7.681490e+00
6.207150e+00
7.075870e+00
6.758360e+00
7.278640e+00
6.961130e+00
7.029470e+00
7.171480e+00
7.214120e+00
7.356130e+00
7.127650e+00
7.433210e+00
7.310820e+00
7.616380e+00
7.294140e+00
7.631640e+00
7.473270e+00
7.810780e+00
7.487010e+00
7.798710e+00
7.659700e+00
7.971400e+00
7.685980e+00
7.948160e+00
7.850110e+00
8.112290e+00
7.880560e+00
8.085260e+00
8.034560e+00
8.239260e+00
8.065370e+00
8.211970e+00
8.207790e+00
8.354400e+00
8.237040e+00
8.328460e+00
8.366850e+00
8.458270e+00
8.393680e+00
8.434530e+00
8.509920e+00
8.550780e+00
8.533820e+00
8.529610e+00
8.635830e+00
8.631620e+00
8.656580e+00
8.613280e+00
8.743730e+00
8.700430e+00
8.761150e+00
8.685010e+00
8.833020e+00
8.756880e+00
8.847060e+00
8.744500e+00
8.903280e+00
8.800720e+00
8.913840e+00
8.791390e+00
8.954180e+00
8.831730e+00
8.961250e+00
8.825500e+00
8.985510e+00
8.849770e+00
8.989050e+00
8.846650e+00
8.997150e+00
8.854750e+00
</DataArray>
<DataArray type="Float32" Name="V2" format="ascii">
4.215330e-01
4.800000e-01
4.226490e-01
4.810740e-01
4.226490e-01
4.810740e-01
4.259930e-01
4.842920e-01
4.259930e-01
4.842920e-01
4.315590e-01
4.896480e-01
4.315590e-01
4.896480e-01
4.393320e-01
4.971280e-01
4.393320e-01
4.971280e-01
4.492930e-01
5.067150e-01
4.492930e-01
5.067150e-01
4.614190e-01
5.183840e-01
4.614190e-01
5.183840e-01
4.756800e-01
5.321080e-01
4.756800e-01
5.321080e-01
4.920410e-01
5.478540e-01
4.920410e-01
5.478540e-01
5.104620e-01
5.655830e-01
5.104620e-01
5.655830e-01
5.308990e-01
5.852520e-01
5.308990e-01
5.852520e-01
5.533010e-01
6.068130e-01
5.533010e-01
6.068130e-01
5.776140e-01
6.302140e-01
5.776140e-01
6.302140e-01
6.037770e-01
6.553970e-01
6.037770e-01
6.553970e-01
6.317270e-01
6.823000e-01
6.317270e-01
6.823000e-01
6.613920e-01
7.108550e-01
6.613920e-01
7.108550e-01
6.927000e-01
7.409930e-01
6.927000e-01
7.409930e-01
7.255720e-01
7.726370e-01
7.255720e-01
7.726370e-01
7.599260e-01
8.057080e-01
7.599260e-01
8.057080e-01
7.956740e-01
8.401230e-01
7.956740e-01
8.401230e-01
8.327240e-01
8.757920e-01
8.327240e-01
8.757920e-01
8.709830e-01
9.126270e-01
8.709830e-01
9.126270e-01
9.103530e-01
9.505300e-01
9.103530e-01
9.505300e-01
9.507300e-01
9.894050e-01
9.507300e-01
9.894050e-01
9.920080e-01
1.029150e+00
9.920080e-01
1.029150e+00
1.034080e+00
1.069660e+00
1.034080e+00
1.069660e+00
1.076820e+00
1.110850e+00
1.076820e+00
1.110850e+00
1.120100e+00
1.152630e+00
1.120100e+00
1.152630e+00
1.163730e+00
1.194960e+00
1.163730e+00
1.194960e+00
1.207380e+00
1.237850e+00
1.207380e+00
1.237850e+00
1.250410e+00
1.281260e+00
1.250410e+00
1.281260e+00
1.291940e+00
1.324320e+00
1.291940e+00
1.324320e+00
1.331030e+00
1.364510e+00
1.331030e+00
1.364510e+00
1.367290e+00
1.402440e+00
1.367290e+00
1.402440e+00
1.400990e+00
1.437960e+00
1.400990e+00
1.437960e+00
1.432200e+00
1.470860e+00
1.432200e+00
1.470860e+00
1.460970e+00
1.501120e+00
1.460970e+00
1.501120e+00
1.487310e+00
1.528730e+00
1.487310e+00
1.528730e+00
1.511260e+00
1.553750e+00
1.511260e+00
1.553750e+00
1.532830e+00
1.576200e+00
1.532830e+00
1.576200e+00
1.552050e+00
1.596150e+00
1.552050e+00
1.596150e+00
1.568940e+00
1.613630e+00
1.568940e+00
1.613630e+00
1.583530e+00
1.628690e+00
1.583530e+00
1.628690e+00
1.595840e+00
1.641380e+00
1.595840e+00
1.641380e+00
1.605880e+00
1.651710e+00
1.605880e+00
1.651710e+00
1.613670e+00
1.659720e+00
1.613670e+00
1.659720e+00
1.619230e+00
1.665430e+00
1.619230e+00
1.665430e+00
1.622560e+00
1.668850e+00
1.622560e+00
1.668850e+00
1.623670e+00
1.669990e+00
</DataArray>
<DataArray type="Float32" Name="V3" format="ascii">
0.000000e+00
0.000000e+00
2.687220e-02
2.494490e-02
2.687220e-02
2.494490e-02
5.362640e-02
4.977590e-02
5.362640e-02
4.977590e-02
8.014470e-02
7.437920e-02
8.014470e-02
7.437920e-02
1.063100e-01
9.864170e-02
1.063100e-01
9.864170e-02
1.320050e-01
1.224500e-01
1.320050e-01
1.224500e-01
1.571130e-01
1.456930e-01
1.571130e-01
1.456930e-01
1.815210e-01
1.682590e-01
1.815210e-01
1.682590e-01
2.051150e-01
1.900400e-01
2.051150e-01
1.900400e-01
2.277830e-01
2.109280e-01
2.277830e-01
2.109280e-01
2.494160e-01
2.308140e-01
2.494160e-01
2.308140e-01
2.699050e-01
2.495970e-01
2.699050e-01
2.495970e-01
2.891430e-01
2.671720e-01
2.891430e-01
2.671720e-01
3.070290e-01
2.834400e-01
3.070290e-01
2.834400e-01
3.234610e-01
2.983020e-01
3.234610e-01
2.983020e-01
3.383400e-01
3.116660e-01
3.383400e-01
3.116660e-01
3.515730e-01
3.234370e-01
3.515730e-01
3.234370e-01
3.630670e-01
3.335270e-01
3.630670e-01
3.335270e-01
3.727340e-01
3.418500e-01
3.727340e-01
3.418500e-01
3.804890e-01
3.483240e-01
3.804890e-01
3.483240e-01
3.862520e-01
3.528690e-01
3.862520e-01
3.528690e-01
3.899440e-01
3.554110e-01
3.899440e-01
3.554110e-01
3.914940e-01
3.558780e-01
3.914940e-01
3.558780e-01
3.908320e-01
3.542040e-01
3.908320e-01
3.542040e-01
3.878930e-01
3.503270e-01
3.878930e-01
3.503270e-01
3.826150e-01
3.441920e-01
3.826150e-01
3.441920e-01
3.749340e-01
3.357550e-01
3.749340e-01
3.357550e-01
3.647800e-01
3.249890e-01
3.647800e-01
3.249890e-01
3.520680e-01
3.118960e-01
3.520680e-01
3.118960e-01
3.366990e-01
2.965100e-01
3.366990e-01
2.965100e-01
3.186730e-01
2.788210e-01
3.186730e-01
2.788210e-01
2.986410e-01
2.587340e-01
2.986410e-01
2.587340e-01
2.780730e-01
2.394190e-01
2.780730e-01
2.394190e-01
2.577860e-01
2.214080e-01
2.577860e-01
2.214080e-01
2.381230e-01
2.043760e-01
2.381230e-01
2.043760e-01
2.191110e-01
1.881230e-01
2.191110e-01
1.881230e-01
2.006750e-01
1.724590e-01
2.006750e-01
1.724590e-01
1.827410e-01
1.572500e-01
1.827410e-01
1.572500e-01
1.652100e-01
1.423730e-01
1.652100e-01
1.423730e-01
1.480150e-01
1.277490e-01
1.480150e-01
1.277490e-01
1.310780e-01
1.132990e-01
1.310780e-01
1.132990e-01
1.143520e-01
9.898010e-02
1.143520e-01
9.898010e-02
9.777990e-02
8.474320e-02
9.777990e-02
8.474320e-02
8.133360e-02
7.056800e-02
8.133360e-02
7.056800e-02
6.497210e-02
5.642480e-02
6.497210e-02
5.642480e-02
4.868060e-02
4.230780e-02
4.868060e-02
4.230780e-02
3.242890e-02
2.819870e-02
3.242890e-02
2.819870e-02
1.621020e-02
1.410020e-02
1.621020e-02
1.410020e-02
0.000000e+00
0.000000e+00
</DataArray>
<DataArray type="Float32" Name="V4" format="ascii">
9.000000e-01
1.000000e+00
9.000000e-01
1.000000e+00
9.000000e-01
1.000000e+00
9.000000e-01
1.000000e+00
9.000000e-01
1.000000e+00
9.000000e-01
1.000000e+00
9.000000e-01
1.000000e+00
9.000000e-01
1.000000e+00
9.000000e-01
1.000000e+00
9.000000e-01
1.000000e+00
9.000000e-01
1.000000e+00
9.000000e-01
1.000000e+00
9.000000e-01
1.000000e+00
9.000000e-01
1.000000e+00
9.000000e-01
1.000000e+00
9.000000e-01
1.000000e+00
9.000000e-01
1.000000e+00
9.000000e-01
1.000000e+00
9.000000e-01
1.000000e+00
9.000000e-01
1.000000e+00
9.000000e-01
1.000000e+00
9.000000e-01
1.000000e+00
9.000000e-01
1.000000e+00
9.000000e-01
1.000000e+00
9.000000e-01
1.000000e+00
9.000000e-01
1.000000e+00
9.000000e-01
1.000000e+00
9.000000e-01
1.000000e+00
9.000000e-01
1.000000e+00
9.000000e-01
1.000000e+00
9.000000e-01
1.000000e+00
9.000000e-01
1.000000e+00
9.000000e-01
1.000000e+00
9.000000e-01
1.000000e+00
9.000000e-01
1.000000e+00
9.000000e-01
1.000000e+00
9.000000e-01
1.000000e+00
9.000000e-01
1.000000e+00
9.000000e-01
1.000000e+00
9.000000e-01
1.000000e+00
9.000000e-01
1.000000e+00
9.000000e-01
1.000000e+00
9.000000e-01
1.000000e+00
9.000000e-01
1.000000e+00
9.000000e-01
1.000000e+00
9.000000e-01
1.000000e+00
9.000000e-01
1.000000e+00
9.000000e-01
1.000000e+00
9.000000e-01
1.000000e+00
9.000000e-01
1.000000e+00
9.000000e-01
1.000000e+00
9.000000e-01
1.000000e+00
9.000000e-01
1.000000e+00
9.000000e-01
1.000000e+00
9.000000e-01
1.000000e+00
9.000000e-01
1.000000e+00
9.000000e-01
1.000000e+00
9.000000e-01
1.000000e+00
9.000000e-01
1.000000e+00
9.000000e-01
1.000000e+00
9.000000e-01
1.000000e+00
9.000000e-01
1.000000e+00
9.000000e-01
1.000000e+00
9.000000e-01
1.000000e+00
9.000000e-01
1.000000e+00
9.000000e-01
1.000000e+00
9.000000e-01
1.000000e+00
9.000000e-01
1.000000e+00
9.000000e-01
1.000000e+00
9.000000e-01
1.000000e+00
9.000000e-01
1.000000e+00
9.000000e-01
1.000000e+00
9.000000e-01
1.000000e+00
9.000000e-01
1.000000e+00
9.000000e-01
1.000000e+00
9.000000e-01
1.000000e+00
9.000000e-01
1.000000e+00
9.000000e-01
1.000000e+00
9.000000e-01
1.000000e+00
9.000000e-01
1.000000e+00
9.000000e-01
1.000000e+00
9.000000e-01
1.000000e+00
9.000000e-01
1.000000e+00
9.000000e-01
1.000000e+00
9.000000e-01
1.000000e+00
9.000000e-01
1.000000e+00
9.000000e-01
1.000000e+00
9.000000e-01
1.000000e+00
9.000000e-01
1.000000e+00
9.000000e-01
1.000000e+00
9.000000e-01
1.000000e+00
9.000000e-01
1.000000e+00
9.000000e-01
1.000000e+00
9.000000e-01
1.000000e+00
9.000000e-01
1.000000e+00
9.000000e-01
1.000000e+00
</DataArray>
<DataArray type="Float32" Name="V5" format="ascii">
0.000000e+00
0.000000e+00
3.272490e-02
3.272490e-02
3.272490e-02
3.272490e-02
6.544980e-02
6.544980e-02
6.544980e-02
6.544980e-02
9.817480e-02
9.817480e-02
9.817480e-02
9.817480e-02
1.309000e-01
1.309000e-01
1.309000e-01
1.309000e-01
1.636250e-01
1.636250e-01
1.636250e-01
1.636250e-01
1.963500e-01
1.963500e-01
1.963500e-01
1.963500e-01
2.290740e-01
2.290740e-01
2.290740e-01
2.290740e-01
2.617990e-01
2.617990e-01
2.617990e-01
2.617990e-01
2.945240e-01
2.945240e-01
2.945240e-01
2.945240e-01
3.272490e-01
3.272490e-01
3.272490e-01
3.272490e-01
3.599740e-01
3.599740e-01
3.599740e-01
3.599740e-01
3.926990e-01
3.926990e-01
3.926990e-01
3.926990e-01
4.254240e-01
4.254240e-01
4.254240e-01
4.254240e-01
4.581490e-01
4.581490e-01
4.581490e-01
4.581490e-01
4.908740e-01
4.908740e-01
4.908740e-01
4.908740e-01
5.235990e-01
5.235990e-01
5.235990e-01
5.235990e-01
5.563240e-01
5.563240e-01
5.563240e-01
5.563240e-01
5.890490e-01
5.890490e-01
5.890490e-01
5.890490e-01
6.217740e-01
6.217740e-01
6.217740e-01
6.217740e-01
6.544980e-01
6.544980e-01
6.544980e-01
6.544980e-01
6.872230e-01
6.872230e-01
6.872230e-01
6.872230e-01
7.199480e-01
7.199480e-01
7.199480e-01
7.199480e-01
7.526730e-01
7.526730e-01
7.526730e-01
7.526730e-01
7.853980e-01
7.853980e-01
7.853980e-01
7.853980e-01
8.181230e-01
8.181230e-01
8.181230e-01
8.181230e-01
8.508480e-01
8.508480e-01
8.508480e-01
8.508480e-01
8.835730e-01
8.835730e-01
8.835730e-01
8.835730e-01
9.162980e-01
9.162980e-01
9.162980e-01
9.162980e-01
9.490230e-01
9.490230e-01
9.490230e-01
9.490230e-01
9.817480e-01
9.817480e-01
9.817480e-01
9.817480e-01
1.014470e+00
1.014470e+00
1.014470e+00
1.014470e+00
1.047200e+00
1.047200e+00
1.047200e+00
1.047200e+00
1.079920e+00
1.079920e+00
1.079920e+00
1.079920e+00
1.112650e+00
1.112650e+00
1.112650e+00
1.112650e+00
1.145370e+00
1.145370e+00
1.145370e+00
1.145370e+00
1.178100e+00
1.178100e+00
1.178100e+00
1.178100e+00
1.210820e+00
1.210820e+00
1.210820e+00
1.210820e+00
1.243550e+00
1.243550e+00
1.243550e+00
1.243550e+00
1.276270e+00
1.276270e+00
1.276270e+00
1.276270e+00
1.309000e+00
1.309000e+00
1.309000e+00
1.309000e+00
1.341720e+00
1.341720e+00
1.341720e+00
1.341720e+00
1.374450e+00
1.374450e+00
1.374450e+00
1.374450e+00
1.407170e+00
1.407170e+00
1.407170e+00
1.407170e+00
1.439900e+00
1.439900e+00
1.439900e+00
1.439900e+00
1.472620e+00
1.472620e+00
1.472620e+00
1.472620e+00
1.505350e+00
1.505350e+00
1.505350e+00
1.505350e+00
1.538070e+00
1.538070e+00
1.538070e+00
1.538070e+00
1.570800e+00
1.570800e+00
</DataArray>
</PointData>
</Piece></UnstructuredGrid>
</VTKFile>
