<?xml version="1.0"?>
<VTKFile type="UnstructuredGrid" version="0.1" byte_order="LittleEndian" compressor="vtkZLibDataCompressor">
<UnstructuredGrid>
<Piece NumberOfPoints="192" NumberOfCells="48">
<Points>
<DataArray type="Float32" NumberOfComponents="3" format="ascii">
0.000000e+00 3.573820e-01 0.000000e+00
0.000000e+00 3.912500e-01 0.000000e+00
5.344840e-02 3.573880e-01 0.000000e+00
5.344290e-02 3.912500e-01 0.000000e+00
5.344840e-02 3.573880e-01 0.000000e+00
5.344290e-02 3.912500e-01 0.000000e+00
1.068950e-01 3.574030e-01 0.000000e+00
1.068840e-01 3.912500e-01 0.000000e+00
1.068950e-01 3.574030e-01 0.000000e+00
1.068840e-01 3.912500e-01 0.000000e+00
1.603370e-01 3.574280e-01 0.000000e+00
1.603200e-01 3.912500e-01 0.000000e+00
1.603370e-01 3.574280e-01 0.000000e+00
1.603200e-01 3.912500e-01 0.000000e+00
2.137720e-01 3.574640e-01 0.000000e+00
2.137500e-01 3.912500e-01 0.000000e+00
2.137720e-01 3.574640e-01 0.000000e+00
2.137500e-01 3.912500e-01 0.000000e+00
2.671980e-01 3.575090e-01 0.000000e+00
2.671700e-01 3.912500e-01 0.000000e+00
2.671980e-01 3.575090e-01 0.000000e+00
2.671700e-01 3.912500e-01 0.000000e+00
3.206110e-01 3.575650e-01 0.000000e+00
3.205780e-01 3.912500e-01 0.000000e+00
3.206110e-01 3.575650e-01 0.000000e+00
3.205780e-01 3.912500e-01 0.000000e+00
3.740090e-01 3.576300e-01 0.000000e+00
3.739700e-01 3.912500e-01 0.000000e+00
3.740090e-01 3.576300e-01 0.000000e+00
3.739700e-01 3.912500e-01 0.000000e+00
4.273920e-01 3.577050e-01 0.000000e+00
4.273470e-01 3.912500e-01 0.000000e+00
4.273920e-01 3.577050e-01 0.000000e+00
4.273470e-01 3.912500e-01 0.000000e+00
4.807550e-01 3.577900e-01 0.000000e+00
4.807050e-01 3.912500e-01 0.000000e+00
4.807550e-01 3.577900e-01 0.000000e+00
4.807050e-01 3.912500e-01 0.000000e+00
5.340960e-01 3.578840e-01 0.000000e+00
5.340410e-01 3.912500e-01 0.000000e+00
5.340960e-01 3.578840e-01 0.000000e+00
5.340410e-01 3.912500e-01 0.000000e+00
5.874110e-01 3.579880e-01 0.000000e+00
5.873510e-01 3.912500e-01 0.000000e+00
5.874110e-01 3.579880e-01 0.000000e+00
5.873510e-01 3.912500e-01 0.000000e+00
6.406980e-01 3.581010e-01 0.000000e+00
6.406320e-01 3.912500e-01 0.000000e+00
6.406980e-01 3.581010e-01 0.000000e+00
6.406320e-01 3.912500e-01 0.000000e+00
6.939530e-01 3.582230e-01 0.000000e+00
6.938820e-01 3.912500e-01 0.000000e+00
6.939530e-01 3.582230e-01 0.000000e+00
6.938820e-01 3.912500e-01 0.000000e+00
7.471740e-01 3.583540e-01 0.000000e+00
7.470970e-01 3.912500e-01 0.000000e+00
7.471740e-01 3.583540e-01 0.000000e+00
7.470970e-01 3.912500e-01 0.000000e+00
8.003550e-01 3.584940e-01 0.000000e+00
8.002740e-01 3.912500e-01 0.000000e+00
8.003550e-01 3.584940e-01 0.000000e+00
8.002740e-01 3.912500e-01 0.000000e+00
8.534940e-01 3.586420e-01 0.000000e+00
8.534080e-01 3.912500e-01 0.000000e+00
8.534940e-01 3.586420e-01 0.000000e+00
8.534080e-01 3.912500e-01 0.000000e+00
9.065860e-01 3.587990e-01 0.000000e+00
9.064950e-01 3.912500e-01 0.000000e+00
9.065860e-01 3.587990e-01 0.000000e+00
9.064950e-01 3.912500e-01 0.000000e+00
9.596270e-01 3.589640e-01 0.000000e+00
9.595310e-01 3.912500e-01 0.000000e+00
9.596270e-01 3.589640e-01 0.000000e+00
9.595310e-01 3.912500e-01 0.000000e+00
1.012610e+00 3.591360e-01 0.000000e+00
1.012510e+00 3.912500e-01 0.000000e+00
1.012610e+00 3.591360e-01 0.000000e+00
1.012510e+00 3.912500e-01 0.000000e+00
1.065540e+00 3.593170e-01 0.000000e+00
1.065430e+00 3.912500e-01 0.000000e+00
1.065540e+00 3.593170e-01 0.000000e+00
1.065430e+00 3.912500e-01 0.000000e+00
1.118400e+00 3.595040e-01 0.000000e+00
1.118290e+00 3.912500e-01 0.000000e+00
1.118400e+00 3.595040e-01 0.000000e+00
1.118290e+00 3.912500e-01 0.000000e+00
1.171190e+00 3.596990e-01 0.000000e+00
1.171070e+00 3.912500e-01 0.000000e+00
1.171190e+00 3.596990e-01 0.000000e+00
1.171070e+00 3.912500e-01 0.000000e+00
1.223900e+00 3.599000e-01 0.000000e+00
1.223780e+00 3.912500e-01 0.000000e+00
1.223900e+00 3.599000e-01 0.000000e+00
1.223780e+00 3.912500e-01 0.000000e+00
1.276530e+00 3.601080e-01 0.000000e+00
1.276410e+00 3.912500e-01 0.000000e+00
1.276530e+00 3.601080e-01 0.000000e+00
1.276410e+00 3.912500e-01 0.000000e+00
1.329070e+00 3.603230e-01 0.000000e+00
1.328950e+00 3.912500e-01 0.000000e+00
1.329070e+00 3.603230e-01 0.000000e+00
1.328950e+00 3.912500e-01 0.000000e+00
1.381520e+00 3.605430e-01 0.000000e+00
1.381390e+00 3.912500e-01 0.000000e+00
1.381520e+00 3.605430e-01 0.000000e+00
1.381390e+00 3.912500e-01 0.000000e+00
1.433860e+00 3.607690e-01 0.000000e+00
1.433730e+00 3.912500e-01 0.000000e+00
1.433860e+00 3.607690e-01 0.000000e+00
1.433730e+00 3.912500e-01 0.000000e+00
1.486100e+00 3.610010e-01 0.000000e+00
1.485960e+00 3.912500e-01 0.000000e+00
1.486100e+00 3.610010e-01 0.000000e+00
1.485960e+00 3.912500e-01 0.000000e+00
1.538210e+00 3.612380e-01 0.000000e+00
1.538070e+00 3.912500e-01 0.000000e+00
1.538210e+00 3.612380e-01 0.000000e+00
1.538070e+00 3.912500e-01 0.000000e+00
1.590200e+00 3.614790e-01 0.000000e+00
1.590060e+00 3.912500e-01 0.000000e+00
1.590200e+00 3.614790e-01 0.000000e+00
1.590060e+00 3.912500e-01 0.000000e+00
1.642040e+00 3.617250e-01 0.000000e+00
1.641920e+00 3.912500e-01 0.000000e+00
1.642040e+00 3.617250e-01 0.000000e+00
1.641920e+00 3.912500e-01 0.000000e+00
1.693740e+00 3.619760e-01 0.000000e+00
1.693660e+00 3.912500e-01 0.000000e+00
1.693740e+00 3.619760e-01 0.000000e+00
1.693660e+00 3.912500e-01 0.000000e+00
1.745220e+00 3.622320e-01 0.000000e+00
1.745280e+00 3.912500e-01 0.000000e+00
1.745220e+00 3.622320e-01 0.000000e+00
1.745280e+00 3.912500e-01 0.000000e+00
1.796450e+00 3.624950e-01 0.000000e+00
1.796900e+00 3.912500e-01 0.000000e+00
1.796450e+00 3.624950e-01 0.000000e+00
1.796900e+00 3.912500e-01 0.000000e+00
1.847150e+00 3.627510e-01 0.000000e+00
1.848670e+00 3.912500e-01 0.000000e+00
1.847150e+00 3.627510e-01 0.000000e+00
1.848670e+00 3.912500e-01 0.000000e+00
1.896810e+00 3.627360e-01 0.000000e+00
1.900730e+00 3.912500e-01 0.000000e+00
1.896810e+00 3.627360e-01 0.000000e+00
1.900730e+00 3.912500e-01 0.000000e+00
1.945010e+00 3.597370e-01 0.000000e+00
1.950720e+00 3.884120e-01 0.000000e+00
1.945010e+00 3.597370e-01 0.000000e+00
1.950720e+00 3.884120e-01 0.000000e+00
1.991110e+00 3.501310e-01 0.000000e+00
1.999710e+00 3.776970e-01 0.000000e+00
1.991110e+00 3.501310e-01 0.000000e+00
1.999710e+00 3.776970e-01 0.000000e+00
2.034920e+00 3.340710e-01 0.000000e+00
2.046830e+00 3.600700e-01 0.000000e+00
2.034920e+00 3.340710e-01 0.000000e+00
2.046830e+00 3.600700e-01 0.000000e+00
2.075870e+00 3.120960e-01 0.000000e+00
2.091000e+00 3.360740e-01 0.000000e+00
2.075870e+00 3.120960e-01 0.000000e+00
2.091000e+00 3.360740e-01 0.000000e+00
2.113340e+00 2.848090e-01 0.000000e+00
2.131370e+00 3.064000e-01 0.000000e+00
2.113340e+00 2.848090e-01 0.000000e+00
2.131370e+00 3.064000e-01 0.000000e+00
2.146830e+00 2.528290e-01 0.000000e+00
2.167380e+00 2.717520e-01 0.000000e+00
2.146830e+00 2.528290e-01 0.000000e+00
2.167380e+00 2.717520e-01 0.000000e+00
2.175850e+00 2.168350e-01 0.000000e+00
2.198510e+00 2.328760e-01 0.000000e+00
2.175850e+00 2.168350e-01 0.000000e+00
2.198510e+00 2.328760e-01 0.000000e+00
2.200060e+00 1.774750e-01 0.000000e+00
2.224440e+00 1.904750e-01 0.000000e+00
2.200060e+00 1.774750e-01 0.000000e+00
2.224440e+00 1.904750e-01 0.000000e+00
2.219170e+00 1.354490e-01 0.000000e+00
2.244870e+00 1.452930e-01 0.000000e+00
2.219170e+00 1.354490e-01 0.000000e+00
2.244870e+00 1.452930e-01 0.000000e+00
2.232970e+00 9.140460e-02 0.000000e+00
2.259600e+00 9.800880e-02 0.000000e+00
2.232970e+00 9.140460e-02 0.000000e+00
2.259600e+00 9.800880e-02 0.000000e+00
2.241300e+00 4.603850e-02 0.000000e+00
2.268500e+00 4.935350e-02 0.000000e+00
2.241300e+00 4.603850e-02 0.000000e+00
2.268500e+00 4.935350e-02 0.000000e+00
2.244090e+00 -8.243000e-06 0.000000e+00
2.271470e+00 -8.343570e-06 0.000000e+00
</DataArray>
</Points>
<Cells>
<DataArray type="Int32" Name="connectivity" format="ascii">
0 1 3 2
4 5 7 6
8 9 11 10
12 13 15 14
16 17 19 18
20 21 23 22
24 25 27 26
28 29 31 30
32 33 35 34
36 37 39 38
40 41 43 42
44 45 47 46
48 49 51 50
52 53 55 54
56 57 59 58
60 61 63 62
64 65 67 66
68 69 71 70
72 73 75 74
76 77 79 78
80 81 83 82
84 85 87 86
88 89 91 90
92 93 95 94
96 97 99 98
100 101 103 102
104 105 107 106
108 109 111 110
112 113 115 114
116 117 119 118
120 121 123 122
124 125 127 126
128 129 131 130
132 133 135 134
136 137 139 138
140 141 143 142
144 145 147 146
148 149 151 150
152 153 155 154
156 157 159 158
160 161 163 162
164 165 167 166
168 169 171 170
172 173 175 174
176 177 179 178
180 181 183 182
184 185 187 186
188 189 191 190
</DataArray>
<DataArray type="Int32" Name="offsets" format="ascii">
4
8
12
16
20
24
28
32
36
40
44
48
52
56
60
64
68
72
76
80
84
88
92
96
100
104
108
112
116
120
124
128
132
136
140
144
148
152
156
160
164
168
172
176
180
184
188
192
</DataArray>
<DataArray type="UInt8" Name="types" format="ascii">
9
9
9
9
9
9
9
9
9
9
9
9
9
9
9
9
9
9
9
9
9
9
9
9
9
9
9
9
9
9
9
9
9
9
9
9
9
9
9
9
9
9
9
9
9
9
9
9
</DataArray>
</Cells>
<PointData>
<DataArray type="Float32" Name="V1" format="ascii">
1.782640e+01
1.109420e+01
1.783200e+01
1.109990e+01
1.783430e+01
1.109860e+01
1.784780e+01
1.111210e+01
1.785210e+01
1.110940e+01
1.787530e+01
1.113260e+01
1.788130e+01
1.112800e+01
1.791410e+01
1.116080e+01
1.792200e+01
1.115460e+01
1.796440e+01
1.119700e+01
1.797410e+01
1.118900e+01
1.802610e+01
1.124100e+01
1.803770e+01
1.123140e+01
1.809930e+01
1.129310e+01
1.811290e+01
1.128180e+01
1.818420e+01
1.135310e+01
1.819970e+01
1.134010e+01
1.828090e+01
1.142130e+01
1.829840e+01
1.140660e+01
1.838940e+01
1.149770e+01
1.840890e+01
1.148120e+01
1.851000e+01
1.158230e+01
1.853150e+01
1.156410e+01
1.864270e+01
1.167530e+01
1.866620e+01
1.165540e+01
1.878770e+01
1.177690e+01
1.881340e+01
1.175510e+01
1.894520e+01
1.188700e+01
1.897300e+01
1.186340e+01
1.911540e+01
1.200580e+01
1.914530e+01
1.198040e+01
1.929850e+01
1.213360e+01
1.933060e+01
1.210630e+01
1.949470e+01
1.227030e+01
1.952910e+01
1.224120e+01
1.970420e+01
1.241630e+01
1.974090e+01
1.238520e+01
1.992740e+01
1.257160e+01
1.996650e+01
1.253850e+01
2.016450e+01
1.273650e+01
2.020590e+01
1.270140e+01
2.041580e+01
1.291120e+01
2.045970e+01
1.287400e+01
2.068150e+01
1.309580e+01
2.072790e+01
1.305650e+01
2.096210e+01
1.329070e+01
2.101110e+01
1.324910e+01
2.125790e+01
1.349590e+01
2.130950e+01
1.345220e+01
2.156920e+01
1.371190e+01
2.162360e+01
1.366590e+01
2.189650e+01
1.393890e+01
2.195360e+01
1.389060e+01
2.224010e+01
1.417720e+01
2.229990e+01
1.412660e+01
2.260050e+01
1.442710e+01
2.266290e+01
1.437430e+01
2.297780e+01
1.468920e+01
2.304230e+01
1.463470e+01
2.337210e+01
1.496440e+01
2.343710e+01
1.490950e+01
2.378220e+01
1.525460e+01
2.384270e+01
1.520360e+01
2.420390e+01
1.556480e+01
2.424520e+01
1.553020e+01
2.462360e+01
1.590870e+01
2.460250e+01
1.592750e+01
2.500150e+01
1.632650e+01
2.479630e+01
1.650270e+01
2.522240e+01
1.692880e+01
2.454010e+01
1.752790e+01
2.497160e+01
1.795940e+01
2.368690e+01
1.902440e+01
2.399590e+01
1.933340e+01
2.324140e+01
2.003670e+01
2.368910e+01
2.048440e+01
2.345120e+01
2.068220e+01
2.387700e+01
2.110800e+01
2.384140e+01
2.113780e+01
2.424390e+01
2.154030e+01
2.427920e+01
2.151060e+01
2.465180e+01
2.188320e+01
2.470850e+01
2.183530e+01
2.504450e+01
2.217140e+01
2.510360e+01
2.212150e+01
2.539730e+01
2.241520e+01
2.545100e+01
2.236990e+01
2.569750e+01
2.261640e+01
2.574250e+01
2.257840e+01
2.593800e+01
2.277390e+01
2.597270e+01
2.274460e+01
2.611430e+01
2.288620e+01
2.613780e+01
2.286640e+01
2.622350e+01
2.295210e+01
2.623540e+01
2.294220e+01
2.626410e+01
2.297080e+01
</DataArray>
<DataArray type="Float32" Name="V2" format="ascii">
3.573820e-01
3.912500e-01
3.589450e-01
3.927890e-01
3.589450e-01
3.927890e-01
3.636290e-01
3.974030e-01
3.636290e-01
3.974030e-01
3.714230e-01
4.050800e-01
3.714230e-01
4.050800e-01
3.823080e-01
4.158030e-01
3.823080e-01
4.158030e-01
3.962590e-01
4.295450e-01
3.962590e-01
4.295450e-01
4.132420e-01
4.462740e-01
4.132420e-01
4.462740e-01
4.332160e-01
4.659490e-01
4.332160e-01
4.659490e-01
4.561340e-01
4.885240e-01
4.561340e-01
4.885240e-01
4.819390e-01
5.139440e-01
4.819390e-01
5.139440e-01
5.105710e-01
5.421480e-01
5.105710e-01
5.421480e-01
5.419590e-01
5.730670e-01
5.419590e-01
5.730670e-01
5.760270e-01
6.066270e-01
5.760270e-01
6.066270e-01
6.126920e-01
6.427460e-01
6.126920e-01
6.427460e-01
6.518650e-01
6.813340e-01
6.518650e-01
6.813340e-01
6.934480e-01
7.222980e-01
6.934480e-01
7.222980e-01
7.373400e-01
7.655360e-01
7.373400e-01
7.655360e-01
7.834320e-01
8.109410e-01
7.834320e-01
8.109410e-01
8.316080e-01
8.584000e-01
8.316080e-01
8.584000e-01
8.817480e-01
9.077930e-01
8.817480e-01
9.077930e-01
9.337220e-01
9.589930e-01
9.337220e-01
9.589930e-01
9.874040e-01
1.011870e+00
9.874040e-01
1.011870e+00
1.042650e+00
1.066300e+00
1.042650e+00
1.066300e+00
1.099330e+00
1.122130e+00
1.099330e+00
1.122130e+00
1.157280e+00
1.179210e+00
1.157280e+00
1.179210e+00
1.216360e+00
1.237410e+00
1.216360e+00
1.237410e+00
1.276400e+00
1.296550e+00
1.276400e+00
1.296550e+00
1.337260e+00
1.356490e+00
1.337260e+00
1.356490e+00
1.398760e+00
1.417070e+00
1.398760e+00
1.417070e+00
1.460740e+00
1.478110e+00
1.460740e+00
1.478110e+00
1.523030e+00
1.539460e+00
1.523030e+00
1.539460e+00
1.585440e+00
1.600930e+00
1.585440e+00
1.600930e+00
1.647810e+00
1.662380e+00
1.647810e+00
1.662380e+00
1.709900e+00
1.723640e+00
1.709900e+00
1.723640e+00
1.771510e+00
1.784640e+00
1.771510e+00
1.784640e+00
1.832210e+00
1.845360e+00
1.832210e+00
1.845360e+00
1.891240e+00
1.905770e+00
1.891240e+00
1.905770e+00
1.947060e+00
1.962510e+00
1.947060e+00
1.962510e+00
1.997990e+00
2.014990e+00
1.997990e+00
2.014990e+00
2.044270e+00
2.063220e+00
2.044270e+00
2.063220e+00
2.085910e+00
2.106730e+00
2.085910e+00
2.106730e+00
2.122810e+00
2.145270e+00
2.122810e+00
2.145270e+00
2.154900e+00
2.178750e+00
2.154900e+00
2.178750e+00
2.182110e+00
2.207080e+00
2.182110e+00
2.207080e+00
2.204410e+00
2.230280e+00
2.204410e+00
2.230280e+00
2.221760e+00
2.248300e+00
2.221760e+00
2.248300e+00
2.234160e+00
2.261180e+00
2.234160e+00
2.261180e+00
2.241610e+00
2.268900e+00
2.241610e+00
2.268900e+00
2.244090e+00
2.271470e+00
</DataArray>
<DataArray type="Float32" Name="V3" format="ascii">
0.000000e+00
0.000000e+00
4.172640e-02
4.061290e-02
4.172640e-02
4.061290e-02
8.329070e-02
8.106580e-02
8.329070e-02
8.106580e-02
1.245310e-01
1.211990e-01
1.245310e-01
1.211990e-01
1.652850e-01
1.608520e-01
1.652850e-01
1.608520e-01
2.053920e-01
1.998680e-01
2.053920e-01
1.998680e-01
2.446930e-01
2.380890e-01
2.446930e-01
2.380890e-01
2.830300e-01
2.753580e-01
2.830300e-01
2.753580e-01
3.202480e-01
3.115230e-01
3.202480e-01
3.115230e-01
3.561930e-01
3.464320e-01
3.561930e-01
3.464320e-01
3.907130e-01
3.799360e-01
3.907130e-01
3.799360e-01
4.236600e-01
4.118870e-01
4.236600e-01
4.118870e-01
4.548890e-01
4.421420e-01
4.548890e-01
4.421420e-01
4.842560e-01
4.705610e-01
4.842560e-01
4.705610e-01
5.116240e-01
4.970060e-01
5.116240e-01
4.970060e-01
5.368570e-01
5.213440e-01
5.368570e-01
5.213440e-01
5.598260e-01
5.434480e-01
5.598260e-01
5.434480e-01
5.804040e-01
5.631910e-01
5.804040e-01
5.631910e-01
5.984710e-01
5.804540e-01
5.984710e-01
5.804540e-01
6.139100e-01
5.951230e-01
6.139100e-01
5.951230e-01
6.266100e-01
6.070870e-01
6.266100e-01
6.070870e-01
6.364660e-01
6.162420e-01
6.364660e-01
6.162420e-01
6.433790e-01
6.224910e-01
6.433790e-01
6.224910e-01
6.472560e-01
6.257390e-01
6.472560e-01
6.257390e-01
6.480080e-01
6.259020e-01
6.480080e-01
6.259020e-01
6.455570e-01
6.228980e-01
6.455570e-01
6.228980e-01
6.398280e-01
6.166560e-01
6.398280e-01
6.166560e-01
6.307540e-01
6.071080e-01
6.307540e-01
6.071080e-01
6.182760e-01
5.941950e-01
6.182760e-01
5.941950e-01
6.023420e-01
5.778660e-01
6.023420e-01
5.778660e-01
5.829070e-01
5.580780e-01
5.829070e-01
5.580780e-01
5.599350e-01
5.347980e-01
5.599350e-01
5.347980e-01
5.333840e-01
5.079940e-01
5.333840e-01
5.079940e-01
5.032370e-01
4.776740e-01
5.032370e-01
4.776740e-01
4.694320e-01
4.438430e-01
4.694320e-01
4.438430e-01
4.319190e-01
4.065890e-01
4.319190e-01
4.065890e-01
3.907500e-01
3.659040e-01
3.907500e-01
3.659040e-01
3.484530e-01
3.236290e-01
3.484530e-01
3.236290e-01
3.084670e-01
2.851260e-01
3.084670e-01
2.851260e-01
2.710240e-01
2.496020e-01
2.710240e-01
2.496020e-01
2.358070e-01
2.165610e-01
2.358070e-01
2.165610e-01
2.025250e-01
1.855920e-01
2.025250e-01
1.855920e-01
1.708470e-01
1.562970e-01
1.708470e-01
1.562970e-01
1.405010e-01
1.283660e-01
1.405010e-01
1.283660e-01
1.112020e-01
1.014950e-01
1.112020e-01
1.014950e-01
8.272300e-02
7.544640e-02
8.272300e-02
7.544640e-02
5.482630e-02
4.997830e-02
5.482630e-02
4.997830e-02
2.732260e-02
2.489920e-02
2.732260e-02
2.489920e-02
0.000000e+00
0.000000e+00
</DataArray>
<DataArray type="Float32" Name="V4" format="ascii">
9.000000e-01
1.000000e+00
9.000000e-01
1.000000e+00
9.000000e-01
1.000000e+00
9.000000e-01
1.000000e+00
9.000000e-01
1.000000e+00
9.000000e-01
1.000000e+00
9.000000e-01
1.000000e+00
9.000000e-01
1.000000e+00
9.000000e-01
1.000000e+00
9.000000e-01
1.000000e+00
9.000000e-01
1.000000e+00
9.000000e-01
1.000000e+00
9.000000e-01
1.000000e+00
9.000000e-01
1.000000e+00
9.000000e-01
1.000000e+00
9.000000e-01
1.000000e+00
9.000000e-01
1.000000e+00
9.000000e-01
1.000000e+00
9.000000e-01
1.000000e+00
9.000000e-01
1.000000e+00
9.000000e-01
1.000000e+00
9.000000e-01
1.000000e+00
9.000000e-01
1.000000e+00
9.000000e-01
1.000000e+00
9.000000e-01
1.000000e+00
9.000000e-01
1.000000e+00
9.000000e-01
1.000000e+00
9.000000e-01
1.000000e+00
9.000000e-01
1.000000e+00
9.000000e-01
1.000000e+00
9.000000e-01
1.000000e+00
9.000000e-01
1.000000e+00
9.000000e-01
1.000000e+00
9.000000e-01
1.000000e+00
9.000000e-01
1.000000e+00
9.000000e-01
1.000000e+00
9.000000e-01
1.000000e+00
9.000000e-01
1.000000e+00
9.000000e-01
1.000000e+00
9.000000e-01
1.000000e+00
9.000000e-01
1.000000e+00
9.000000e-01
1.000000e+00
9.000000e-01
1.000000e+00
9.000000e-01
1.000000e+00
9.000000e-01
1.000000e+00
9.000000e-01
1.000000e+00
9.000000e-01
1.000000e+00
9.000000e-01
1.000000e+00
9.000000e-01
1.000000e+00
9.000000e-01
1.000000e+00
9.000000e-01
1.000000e+00
9.000000e-01
1.000000e+00
9.000000e-01
1.000000e+00
9.000000e-01
1.000000e+00
9.000000e-01
1.000000e+00
9.000000e-01
1.000000e+00
9.000000e-01
1.000000e+00
9.000000e-01
1.000000e+00
9.000000e-01
1.000000e+00
9.000000e-01
1.000000e+00
9.000000e-01
1.000000e+00
9.000000e-01
1.000000e+00
9.000000e-01
1.000000e+00
9.000000e-01
1.000000e+00
9.000000e-01
1.000000e+00
9.000000e-01
1.000000e+00
9.000000e-01
1.000000e+00
9.000000e-01
1.000000e+00
9.000000e-01
1.000000e+00
9.000000e-01
1.000000e+00
9.000000e-01
1.000000e+00
9.000000e-01
1.000000e+00
9.000000e-01
1.000000e+00
9.000000e-01
1.000000e+00
9.000000e-01
1.000000e+00
9.000000e-01
1.000000e+00
9.000000e-01
1.000000e+00
9.000000e-01
1.000000e+00
9.000000e-01
1.000000e+00
9.000000e-01
1.000000e+00
9.000000e-01
1.000000e+00
9.000000e-01
1.000000e+00
9.000000e-01
1.000000e+00
9.000000e-01
1.000000e+00
9.000000e-01
1.000000e+00
9.000000e-01
1.000000e+00
9.000000e-01
1.000000e+00
9.000000e-01
1.000000e+00
9.000000e-01
1.000000e+00
9.000000e-01
1.000000e+00
9.000000e-01
1.000000e+00
9.000000e-01
1.000000e+00
9.000000e-01
1.000000e+00
9.000000e-01
1.000000e+00
9.000000e-01
1.000000e+00
9.000000e-01
1.000000e+00
</DataArray>
<DataArray type="Float32" Name="V5" format="ascii">
0.000000e+00
0.000000e+00
3.272490e-02
3.272490e-02
3.272490e-02
3.272490e-02
6.544980e-02
6.544980e-02
6.544980e-02
6.544980e-02
9.817480e-02
9.817480e-02
9.817480e-02
9.817480e-02
1.309000e-01
1.309000e-01
1.309000e-01
1.309000e-01
1.636250e-01
1.636250e-01
1.636250e-01
1.636250e-01
1.963500e-01
1.963500e-01
1.963500e-01
1.963500e-01
2.290740e-01
2.290740e-01
2.290740e-01
2.290740e-01
2.617990e-01
2.617990e-01
2.617990e-01
2.617990e-01
2.945240e-01
2.945240e-01
2.945240e-01
2.945240e-01
3.272490e-01
3.272490e-01
3.272490e-01
3.272490e-01
3.599740e-01
3.599740e-01
3.599740e-01
3.599740e-01
3.926990e-01
3.926990e-01
3.926990e-01
3.926990e-01
4.254240e-01
4.254240e-01
4.254240e-01
4.254240e-01
4.581490e-01
4.581490e-01
4.581490e-01
4.581490e-01
4.908740e-01
4.908740e-01
4.908740e-01
4.908740e-01
5.235990e-01
5.235990e-01
5.235990e-01
5.235990e-01
5.563240e-01
5.563240e-01
5.563240e-01
5.563240e-01
5.890490e-01
5.890490e-01
5.890490e-01
5.890490e-01
6.217740e-01
6.217740e-01
6.217740e-01
6.217740e-01
6.544980e-01
6.544980e-01
6.544980e-01
6.544980e-01
6.872230e-01
6.872230e-01
6.872230e-01
6.872230e-01
7.199480e-01
7.199480e-01
7.199480e-01
7.199480e-01
7.526730e-01
7.526730e-01
7.526730e-01
7.526730e-01
7.853980e-01
7.853980e-01
7.853980e-01
7.853980e-01
8.181230e-01
8.181230e-01
8.181230e-01
8.181230e-01
8.508480e-01
8.508480e-01
8.508480e-01
8.508480e-01
8.835730e-01
8.835730e-01
8.835730e-01
8.835730e-01
9.162980e-01
9.162980e-01
9.162980e-01
9.162980e-01
9.490230e-01
9.490230e-01
9.490230e-01
9.490230e-01
9.817480e-01
9.817480e-01
9.817480e-01
9.817480e-01
1.014470e+00
1.014470e+00
1.014470e+00
1.014470e+00
1.047200e+00
1.047200e+00
1.047200e+00
1.047200e+00
1.079920e+00
1.079920e+00
1.079920e+00
1.079920e+00
1.112650e+00
1.112650e+00
1.112650e+00
1.112650e+00
1.145370e+00
1.145370e+00
1.145370e+00
1.145370e+00
1.178100e+00
1.178100e+00
1.178100e+00
1.178100e+00
1.210820e+00
1.210820e+00
1.210820e+00
1.210820e+00
1.243550e+00
1.243550e+00
1.243550e+00
1.243550e+00
1.276270e+00
1.276270e+00
1.276270e+00
1.276270e+00
1.309000e+00
1.309000e+00
1.309000e+00
1.309000e+00
1.341720e+00
1.341720e+00
1.341720e+00
1.341720e+00
1.374450e+00
1.374450e+00
1.374450e+00
1.374450e+00
1.407170e+00
1.407170e+00
1.407170e+00
1.407170e+00
1.439900e+00
1.439900e+00
1.439900e+00
1.439900e+00
1.472620e+00
1.472620e+00
1.472620e+00
1.472620e+00
1.505350e+00
1.505350e+00
1.505350e+00
1.505350e+00
1.538070e+00
1.538070e+00
1.538070e+00
1.538070e+00
1.570800e+00
1.570800e+00
</DataArray>
</PointData>
</Piece></UnstructuredGrid>
</VTKFile>
