<?xml version="1.0"?>
<VTKFile type="UnstructuredGrid" version="0.1" byte_order="LittleEndian" compressor="vtkZLibDataCompressor">
<UnstructuredGrid>
<Piece NumberOfPoints="192" NumberOfCells="48">
<Points>
<DataArray type="Float32" NumberOfComponents="3" format="ascii">
0.000000e+00 7.388430e-01 0.000000e+00
0.000000e+00 8.400000e-01 0.000000e+00
3.095480e-02 7.388560e-01 0.000000e+00
3.090880e-02 8.400000e-01 0.000000e+00
3.095480e-02 7.388560e-01 0.000000e+00
3.090880e-02 8.400000e-01 0.000000e+00
6.190890e-02 7.388970e-01 0.000000e+00
6.181510e-02 8.400000e-01 0.000000e+00
6.190890e-02 7.388970e-01 0.000000e+00
6.181510e-02 8.400000e-01 0.000000e+00
9.286120e-02 7.389670e-01 0.000000e+00
9.271690e-02 8.400000e-01 0.000000e+00
9.286120e-02 7.389670e-01 0.000000e+00
9.271690e-02 8.400000e-01 0.000000e+00
1.238110e-01 7.390700e-01 0.000000e+00
1.236140e-01 8.400000e-01 0.000000e+00
1.238110e-01 7.390700e-01 0.000000e+00
1.236140e-01 8.400000e-01 0.000000e+00
1.547550e-01 7.392120e-01 0.000000e+00
1.545110e-01 8.400000e-01 0.000000e+00
1.547550e-01 7.392120e-01 0.000000e+00
1.545110e-01 8.400000e-01 0.000000e+00
1.856870e-01 7.394020e-01 0.000000e+00
1.854200e-01 8.400000e-01 0.000000e+00
1.856870e-01 7.394020e-01 0.000000e+00
1.854200e-01 8.400000e-01 0.000000e+00
2.165890e-01 7.396530e-01 0.000000e+00
2.163640e-01 8.400000e-01 0.000000e+00
2.165890e-01 7.396530e-01 0.000000e+00
2.163640e-01 8.400000e-01 0.000000e+00
2.474240e-01 7.399750e-01 0.000000e+00
2.473900e-01 8.400000e-01 0.000000e+00
2.474240e-01 7.399750e-01 0.000000e+00
2.473900e-01 8.400000e-01 0.000000e+00
2.781190e-01 7.403650e-01 0.000000e+00
2.785700e-01 8.400000e-01 0.000000e+00
2.781190e-01 7.403650e-01 0.000000e+00
2.785700e-01 8.400000e-01 0.000000e+00
3.085480e-01 7.407710e-01 0.000000e+00
3.100000e-01 8.400000e-01 0.000000e+00
3.085480e-01 7.407710e-01 0.000000e+00
3.100000e-01 8.400000e-01 0.000000e+00
3.385380e-01 7.410250e-01 0.000000e+00
3.417800e-01 8.400000e-01 0.000000e+00
3.385380e-01 7.410250e-01 0.000000e+00
3.417800e-01 8.400000e-01 0.000000e+00
3.679740e-01 7.408210e-01 0.000000e+00
3.739390e-01 8.400000e-01 0.000000e+00
3.679740e-01 7.408210e-01 0.000000e+00
3.739390e-01 8.400000e-01 0.000000e+00
3.969110e-01 7.397590e-01 0.000000e+00
4.063400e-01 8.387740e-01 0.000000e+00
3.969110e-01 7.397590e-01 0.000000e+00
4.063400e-01 8.387740e-01 0.000000e+00
4.252010e-01 7.375020e-01 0.000000e+00
4.389790e-01 8.356800e-01 0.000000e+00
4.252010e-01 7.375020e-01 0.000000e+00
4.389790e-01 8.356800e-01 0.000000e+00
4.529290e-01 7.337530e-01 0.000000e+00
4.716840e-01 8.307310e-01 0.000000e+00
4.529290e-01 7.337530e-01 0.000000e+00
4.716840e-01 8.307310e-01 0.000000e+00
4.801320e-01 7.283710e-01 0.000000e+00
5.042270e-01 8.237940e-01 0.000000e+00
4.801320e-01 7.283710e-01 0.000000e+00
5.042270e-01 8.237940e-01 0.000000e+00
5.068000e-01 7.212990e-01 0.000000e+00
5.363810e-01 8.148130e-01 0.000000e+00
5.068000e-01 7.212990e-01 0.000000e+00
5.363810e-01 8.148130e-01 0.000000e+00
5.328990e-01 7.125280e-01 0.000000e+00
5.679440e-01 8.038020e-01 0.000000e+00
5.328990e-01 7.125280e-01 0.000000e+00
5.679440e-01 8.038020e-01 0.000000e+00
5.583860e-01 7.020850e-01 0.000000e+00
5.987440e-01 7.908310e-01 0.000000e+00
5.583860e-01 7.020850e-01 0.000000e+00
5.987440e-01 7.908310e-01 0.000000e+00
5.832140e-01 6.900220e-01 0.000000e+00
6.286450e-01 7.760040e-01 0.000000e+00
5.832140e-01 6.900220e-01 0.000000e+00
6.286450e-01 7.760040e-01 0.000000e+00
6.073400e-01 6.764140e-01 0.000000e+00
6.575470e-01 7.594510e-01 0.000000e+00
6.073400e-01 6.764140e-01 0.000000e+00
6.575470e-01 7.594510e-01 0.000000e+00
6.307270e-01 6.613460e-01 0.000000e+00
6.853820e-01 7.413080e-01 0.000000e+00
6.307270e-01 6.613460e-01 0.000000e+00
6.853820e-01 7.413080e-01 0.000000e+00
6.533430e-01 6.449100e-01 0.000000e+00
7.121080e-01 7.217150e-01 0.000000e+00
6.533430e-01 6.449100e-01 0.000000e+00
7.121080e-01 7.217150e-01 0.000000e+00
6.751630e-01 6.272010e-01 0.000000e+00
7.377030e-01 7.008050e-01 0.000000e+00
6.751630e-01 6.272010e-01 0.000000e+00
7.377030e-01 7.008050e-01 0.000000e+00
6.961680e-01 6.083130e-01 0.000000e+00
7.621640e-01 6.787010e-01 0.000000e+00
6.961680e-01 6.083130e-01 0.000000e+00
7.621640e-01 6.787010e-01 0.000000e+00
7.163440e-01 5.883370e-01 0.000000e+00
7.854960e-01 6.555170e-01 0.000000e+00
7.163440e-01 5.883370e-01 0.000000e+00
7.854960e-01 6.555170e-01 0.000000e+00
7.356800e-01 5.673610e-01 0.000000e+00
8.077130e-01 6.313540e-01 0.000000e+00
7.356800e-01 5.673610e-01 0.000000e+00
8.077130e-01 6.313540e-01 0.000000e+00
7.541680e-01 5.454650e-01 0.000000e+00
8.288310e-01 6.063010e-01 0.000000e+00
7.541680e-01 5.454650e-01 0.000000e+00
8.288310e-01 6.063010e-01 0.000000e+00
7.718020e-01 5.227270e-01 0.000000e+00
8.488680e-01 5.804360e-01 0.000000e+00
7.718020e-01 5.227270e-01 0.000000e+00
8.488680e-01 5.804360e-01 0.000000e+00
7.885780e-01 4.992150e-01 0.000000e+00
8.678420e-01 5.538300e-01 0.000000e+00
7.885780e-01 4.992150e-01 0.000000e+00
8.678420e-01 5.538300e-01 0.000000e+00
8.044900e-01 4.749940e-01 0.000000e+00
8.857680e-01 5.265440e-01 0.000000e+00
8.044900e-01 4.749940e-01 0.000000e+00
8.857680e-01 5.265440e-01 0.000000e+00
8.195370e-01 4.501240e-01 0.000000e+00
9.026580e-01 4.986340e-01 0.000000e+00
8.195370e-01 4.501240e-01 0.000000e+00
9.026580e-01 4.986340e-01 0.000000e+00
8.337110e-01 4.246600e-01 0.000000e+00
9.185240e-01 4.701480e-01 0.000000e+00
8.337110e-01 4.246600e-01 0.000000e+00
9.185240e-01 4.701480e-01 0.000000e+00
8.470100e-01 3.986520e-01 0.000000e+00
9.333720e-01 4.411320e-01 0.000000e+00
8.470100e-01 3.986520e-01 0.000000e+00
9.333720e-01 4.411320e-01 0.000000e+00
8.594270e-01 3.721470e-01 0.000000e+00
9.472090e-01 4.116270e-01 0.000000e+00
8.594270e-01 3.721470e-01 0.000000e+00
9.472090e-01 4.116270e-01 0.000000e+00
8.709580e-01 3.451900e-01 0.000000e+00
9.600350e-01 3.816730e-01 0.000000e+00
8.709580e-01 3.451900e-01 0.000000e+00
9.600350e-01 3.816730e-01 0.000000e+00
8.815970e-01 3.178220e-01 0.000000e+00
9.718530e-01 3.513080e-01 0.000000e+00
8.815970e-01 3.178220e-01 0.000000e+00
9.718530e-01 3.513080e-01 0.000000e+00
8.913370e-01 2.900810e-01 0.000000e+00
9.826610e-01 3.205650e-01 0.000000e+00
8.913370e-01 2.900810e-01 0.000000e+00
9.826610e-01 3.205650e-01 0.000000e+00
9.001720e-01 2.620070e-01 0.000000e+00
9.924560e-01 2.894820e-01 0.000000e+00
9.001720e-01 2.620070e-01 0.000000e+00
9.924560e-01 2.894820e-01 0.000000e+00
9.080970e-01 2.336340e-01 0.000000e+00
1.001240e+00 2.580920e-01 0.000000e+00
9.080970e-01 2.336340e-01 0.000000e+00
1.001240e+00 2.580920e-01 0.000000e+00
9.151060e-01 2.049990e-01 0.000000e+00
1.009000e+00 2.264290e-01 0.000000e+00
9.151060e-01 2.049990e-01 0.000000e+00
1.009000e+00 2.264290e-01 0.000000e+00
9.211920e-01 1.761340e-01 0.000000e+00
1.015730e+00 1.945270e-01 0.000000e+00
9.211920e-01 1.761340e-01 0.000000e+00
1.015730e+00 1.945270e-01 0.000000e+00
9.263510e-01 1.470750e-01 0.000000e+00
1.021440e+00 1.624200e-01 0.000000e+00
9.263510e-01 1.470750e-01 0.000000e+00
1.021440e+00 1.624200e-01 0.000000e+00
9.305790e-01 1.178540e-01 0.000000e+00
1.026120e+00 1.301420e-01 0.000000e+00
9.305790e-01 1.178540e-01 0.000000e+00
1.026120e+00 1.301420e-01 0.000000e+00
9.338720e-01 8.850300e-02 0.000000e+00
1.029760e+00 9.772670e-02 0.000000e+00
9.338720e-01 8.850300e-02 0.000000e+00
1.029760e+00 9.772670e-02 0.000000e+00
9.362250e-01 5.905570e-02 0.000000e+00
1.032360e+00 6.520840e-02 0.000000e+00
9.362250e-01 5.905570e-02 0.000000e+00
1.032360e+00 6.520840e-02 0.000000e+00
9.376390e-01 2.954390e-02 0.000000e+00
1.033920e+00 3.262140e-02 0.000000e+00
9.376390e-01 2.954390e-02 0.000000e+00
1.033920e+00 3.262140e-02 0.000000e+00
9.381100e-01 4.593540e-12 0.000000e+00
1.034450e+00 5.065250e-12 0.000000e+00
</DataArray>
</Points>
<Cells>
<DataArray type="Int32" Name="connectivity" format="ascii">
0 1 3 2
4 5 7 6
8 9 11 10
12 13 15 14
16 17 19 18
20 21 23 22
24 25 27 26
28 29 31 30
32 33 35 34
36 37 39 38
40 41 43 42
44 45 47 46
48 49 51 50
52 53 55 54
56 57 59 58
60 61 63 62
64 65 67 66
68 69 71 70
72 73 75 74
76 77 79 78
80 81 83 82
84 85 87 86
88 89 91 90
92 93 95 94
96 97 99 98
100 101 103 102
104 105 107 106
108 109 111 110
112 113 115 114
116 117 119 118
120 121 123 122
124 125 127 126
128 129 131 130
132 133 135 134
136 137 139 138
140 141 143 142
144 145 147 146
148 149 151 150
152 153 155 154
156 157 159 158
160 161 163 162
164 165 167 166
168 169 171 170
172 173 175 174
176 177 179 178
180 181 183 182
184 185 187 186
188 189 191 190
</DataArray>
<DataArray type="Int32" Name="offsets" format="ascii">
4
8
12
16
20
24
28
32
36
40
44
48
52
56
60
64
68
72
76
80
84
88
92
96
100
104
108
112
116
120
124
128
132
136
140
144
148
152
156
160
164
168
172
176
180
184
188
192
</DataArray>
<DataArray type="UInt8" Name="types" format="ascii">
9
9
9
9
9
9
9
9
9
9
9
9
9
9
9
9
9
9
9
9
9
9
9
9
9
9
9
9
9
9
9
9
9
9
9
9
9
9
9
9
9
9
9
9
9
9
9
9
</DataArray>
</Cells>
<PointData>
<DataArray type="Float32" Name="V1" format="ascii">
8.292560e-01
-1.230320e+00
8.307540e-01
-1.228820e+00
8.313870e-01
-1.228990e+00
8.348430e-01
-1.225530e+00
8.360470e-01
-1.226180e+00
8.419380e-01
-1.220290e+00
8.437120e-01
-1.221590e+00
8.516200e-01
-1.213680e+00
8.540130e-01
-1.215600e+00
8.632500e-01
-1.206360e+00
8.658180e-01
-1.208430e+00
8.752820e-01
-1.198960e+00
8.763450e-01
-1.199550e+00
8.844900e-01
-1.191400e+00
8.796960e-01
-1.186430e+00
8.849020e-01
-1.181220e+00
8.647950e-01
-1.161950e+00
8.668220e-01
-1.159920e+00
8.134180e-01
-1.109960e+00
8.172820e-01
-1.106100e+00
7.010160e-01
-9.989370e-01
7.252800e-01
-9.746730e-01
5.011870e-01
-7.666580e-01
5.838180e-01
-6.840270e-01
2.838380e-01
-3.731980e-01
3.505130e-01
-3.065230e-01
1.368210e-01
-1.167150e-01
1.673680e-01
-8.616820e-02
1.190880e-02
5.773930e-02
4.161780e-02
8.744830e-02
-7.426330e-02
1.952280e-01
-4.334900e-02
2.261420e-01
-1.249540e-01
3.018690e-01
-9.412110e-02
3.327020e-01
-1.468050e-01
3.814690e-01
-1.172210e-01
4.110520e-01
-1.461860e-01
4.378130e-01
-1.186780e-01
4.653200e-01
-1.288610e-01
4.747030e-01
-1.039680e-01
4.995960e-01
-9.988610e-02
4.957910e-01
-7.790240e-02
5.177750e-01
-6.352680e-02
5.044510e-01
-4.454600e-02
5.234320e-01
-2.324010e-02
5.036880e-01
-7.199240e-03
5.197280e-01
1.829340e-02
4.960940e-01
3.156820e-02
5.093690e-01
5.909160e-02
4.838340e-01
6.984470e-02
4.945870e-01
9.777090e-02
4.686600e-01
1.062850e-01
4.771730e-01
1.334390e-01
4.519420e-01
1.400080e-01
4.585120e-01
1.655920e-01
4.347230e-01
1.705060e-01
4.396360e-01
1.940200e-01
4.177570e-01
1.975500e-01
4.212880e-01
2.187260e-01
4.015710e-01
2.211220e-01
4.039670e-01
2.398660e-01
3.865060e-01
2.413480e-01
3.879880e-01
2.576880e-01
3.727590e-01
2.584490e-01
3.735190e-01
2.724990e-01
3.604180e-01
2.727040e-01
3.606230e-01
2.846340e-01
3.494950e-01
2.844220e-01
3.492840e-01
2.944300e-01
3.399470e-01
2.939180e-01
3.394350e-01
3.022150e-01
3.316910e-01
3.014990e-01
3.309750e-01
3.083000e-01
3.246270e-01
3.074570e-01
3.237840e-01
3.129660e-01
3.186400e-01
3.120590e-01
3.177330e-01
3.164700e-01
3.136150e-01
3.155490e-01
3.126940e-01
3.190360e-01
3.094380e-01
3.181390e-01
3.085410e-01
3.208600e-01
3.060000e-01
3.200190e-01
3.051590e-01
3.221110e-01
3.032040e-01
3.213470e-01
3.024400e-01
3.229300e-01
3.009620e-01
3.222600e-01
3.002930e-01
3.234320e-01
2.991990e-01
3.228710e-01
2.986370e-01
3.237130e-01
2.978500e-01
3.232690e-01
2.974050e-01
3.238460e-01
2.968660e-01
3.235240e-01
2.965450e-01
3.238830e-01
2.962090e-01
3.236880e-01
2.960150e-01
3.238600e-01
2.958550e-01
3.237950e-01
2.957890e-01
</DataArray>
<DataArray type="Float32" Name="V2" format="ascii">
7.388430e-01
8.400000e-01
7.394730e-01
8.405620e-01
7.394730e-01
8.405620e-01
7.413640e-01
8.422440e-01
7.413640e-01
8.422440e-01
7.445110e-01
8.450430e-01
7.445110e-01
8.450430e-01
7.489080e-01
8.489490e-01
7.489080e-01
8.489490e-01
7.545480e-01
8.539500e-01
7.545480e-01
8.539500e-01
7.614200e-01
8.600330e-01
7.614200e-01
8.600330e-01
7.695130e-01
8.671880e-01
7.695130e-01
8.671880e-01
7.787990e-01
8.754070e-01
7.787990e-01
8.754070e-01
7.892190e-01
8.846940e-01
7.892190e-01
8.846940e-01
8.006380e-01
8.950680e-01
8.006380e-01
8.950680e-01
8.127800e-01
9.065530e-01
8.127800e-01
9.065530e-01
8.252470e-01
9.191590e-01
8.252470e-01
9.191590e-01
8.376270e-01
9.317090e-01
8.376270e-01
9.317090e-01
8.495070e-01
9.436540e-01
8.495070e-01
9.436540e-01
8.606220e-01
9.549890e-01
8.606220e-01
9.549890e-01
8.708540e-01
9.655390e-01
8.708540e-01
9.655390e-01
8.801540e-01
9.751860e-01
8.801540e-01
9.751860e-01
8.885090e-01
9.838700e-01
8.885090e-01
9.838700e-01
8.959340e-01
9.915790e-01
8.959340e-01
9.915790e-01
9.024690e-01
9.983410e-01
9.024690e-01
9.983410e-01
9.081680e-01
1.004210e+00
9.081680e-01
1.004210e+00
9.130930e-01
1.009250e+00
9.130930e-01
1.009250e+00
9.173170e-01
1.013550e+00
9.173170e-01
1.013550e+00
9.209100e-01
1.017180e+00
9.209100e-01
1.017180e+00
9.239460e-01
1.020230e+00
9.239460e-01
1.020230e+00
9.264930e-01
1.022780e+00
9.264930e-01
1.022780e+00
9.286180e-01
1.024900e+00
9.286180e-01
1.024900e+00
9.303800e-01
1.026650e+00
9.303800e-01
1.026650e+00
9.318330e-01
1.028090e+00
9.318330e-01
1.028090e+00
9.330270e-01
1.029280e+00
9.330270e-01
1.029280e+00
9.340040e-01
1.030250e+00
9.340040e-01
1.030250e+00
9.348020e-01
1.031040e+00
9.348020e-01
1.031040e+00
9.354510e-01
1.031690e+00
9.354510e-01
1.031690e+00
9.359790e-01
1.032220e+00
9.359790e-01
1.032220e+00
9.364090e-01
1.032660e+00
9.364090e-01
1.032660e+00
9.367590e-01
1.033020e+00
9.367590e-01
1.033020e+00
9.370450e-01
1.033310e+00
9.370450e-01
1.033310e+00
9.372770e-01
1.033550e+00
9.372770e-01
1.033550e+00
9.374680e-01
1.033750e+00
9.374680e-01
1.033750e+00
9.376240e-01
1.033920e+00
9.376240e-01
1.033920e+00
9.377510e-01
1.034050e+00
9.377510e-01
1.034050e+00
9.378540e-01
1.034170e+00
9.378540e-01
1.034170e+00
9.379360e-01
1.034260e+00
9.379360e-01
1.034260e+00
9.380010e-01
1.034330e+00
9.380010e-01
1.034330e+00
9.380500e-01
1.034380e+00
9.380500e-01
1.034380e+00
9.380830e-01
1.034420e+00
9.380830e-01
1.034420e+00
9.381030e-01
1.034440e+00
9.381030e-01
1.034440e+00
9.381100e-01
1.034450e+00
</DataArray>
<DataArray type="Float32" Name="V3" format="ascii">
0.000000e+00
0.000000e+00
6.763570e-03
3.408230e-03
6.763570e-03
3.408230e-03
1.345010e-02
6.744080e-03
1.345010e-02
6.744080e-03
1.998260e-02
9.936060e-03
1.998260e-02
9.936060e-03
2.628350e-02
1.291480e-02
2.628350e-02
1.291480e-02
3.227360e-02
1.561540e-02
3.227360e-02
1.561540e-02
3.786840e-02
1.798090e-02
3.786840e-02
1.798090e-02
4.297320e-02
1.996790e-02
4.297320e-02
1.996790e-02
4.747370e-02
2.155250e-02
4.747370e-02
2.155250e-02
5.122670e-02
2.273570e-02
5.122670e-02
2.273570e-02
5.406080e-02
2.353940e-02
5.406080e-02
2.353940e-02
5.581300e-02
2.398370e-02
5.581300e-02
2.398370e-02
5.646370e-02
2.402050e-02
5.646370e-02
2.402050e-02
5.622780e-02
2.395280e-02
5.622780e-02
2.395280e-02
5.516280e-02
2.409650e-02
5.516280e-02
2.409650e-02
5.355930e-02
2.438440e-02
5.355930e-02
2.438440e-02
5.162120e-02
2.477620e-02
5.162120e-02
2.477620e-02
4.948070e-02
2.521960e-02
4.948070e-02
2.521960e-02
4.722990e-02
2.565950e-02
4.722990e-02
2.565950e-02
4.493320e-02
2.604550e-02
4.493320e-02
2.604550e-02
4.263550e-02
2.633610e-02
4.263550e-02
2.633610e-02
4.036750e-02
2.650050e-02
4.036750e-02
2.650050e-02
3.814990e-02
2.651920e-02
3.814990e-02
2.651920e-02
3.599620e-02
2.638290e-02
3.599620e-02
2.638290e-02
3.391470e-02
2.609100e-02
3.391470e-02
2.609100e-02
3.190980e-02
2.564950e-02
3.190980e-02
2.564950e-02
2.998320e-02
2.506930e-02
2.998320e-02
2.506930e-02
2.813440e-02
2.436430e-02
2.813440e-02
2.436430e-02
2.636130e-02
2.354970e-02
2.636130e-02
2.354970e-02
2.466060e-02
2.264130e-02
2.466060e-02
2.264130e-02
2.302830e-02
2.165420e-02
2.302830e-02
2.165420e-02
2.145950e-02
2.060270e-02
2.145950e-02
2.060270e-02
1.994920e-02
1.949940e-02
1.994920e-02
1.949940e-02
1.849200e-02
1.835560e-02
1.849200e-02
1.835560e-02
1.708270e-02
1.718090e-02
1.708270e-02
1.718090e-02
1.571610e-02
1.598330e-02
1.571610e-02
1.598330e-02
1.438730e-02
1.476940e-02
1.438730e-02
1.476940e-02
1.309140e-02
1.354450e-02
1.309140e-02
1.354450e-02
1.182410e-02
1.231290e-02
1.182410e-02
1.231290e-02
1.058140e-02
1.107760e-02
1.058140e-02
1.107760e-02
9.359590e-03
9.841080e-03
9.359590e-03
9.841080e-03
8.155350e-03
8.604890e-03
8.155350e-03
8.604890e-03
6.965690e-03
7.370080e-03
6.965690e-03
7.370080e-03
5.787910e-03
6.137230e-03
5.787910e-03
6.137230e-03
4.619600e-03
4.906510e-03
4.619600e-03
4.906510e-03
3.458580e-03
3.677830e-03
3.458580e-03
3.677830e-03
2.302860e-03
2.450860e-03
2.302860e-03
2.450860e-03
1.150580e-03
1.225110e-03
1.150580e-03
1.225110e-03
0.000000e+00
0.000000e+00
</DataArray>
<DataArray type="Float32" Name="V4" format="ascii">
9.000000e-01
1.000000e+00
9.000000e-01
1.000000e+00
9.000000e-01
1.000000e+00
9.000000e-01
1.000000e+00
9.000000e-01
1.000000e+00
9.000000e-01
1.000000e+00
9.000000e-01
1.000000e+00
9.000000e-01
1.000000e+00
9.000000e-01
1.000000e+00
9.000000e-01
1.000000e+00
9.000000e-01
1.000000e+00
9.000000e-01
1.000000e+00
9.000000e-01
1.000000e+00
9.000000e-01
1.000000e+00
9.000000e-01
1.000000e+00
9.000000e-01
1.000000e+00
9.000000e-01
1.000000e+00
9.000000e-01
1.000000e+00
9.000000e-01
1.000000e+00
9.000000e-01
1.000000e+00
9.000000e-01
1.000000e+00
9.000000e-01
1.000000e+00
9.000000e-01
1.000000e+00
9.000000e-01
1.000000e+00
9.000000e-01
1.000000e+00
9.000000e-01
1.000000e+00
9.000000e-01
1.000000e+00
9.000000e-01
1.000000e+00
9.000000e-01
1.000000e+00
9.000000e-01
1.000000e+00
9.000000e-01
1.000000e+00
9.000000e-01
1.000000e+00
9.000000e-01
1.000000e+00
9.000000e-01
1.000000e+00
9.000000e-01
1.000000e+00
9.000000e-01
1.000000e+00
9.000000e-01
1.000000e+00
9.000000e-01
1.000000e+00
9.000000e-01
1.000000e+00
9.000000e-01
1.000000e+00
9.000000e-01
1.000000e+00
9.000000e-01
1.000000e+00
9.000000e-01
1.000000e+00
9.000000e-01
1.000000e+00
9.000000e-01
1.000000e+00
9.000000e-01
1.000000e+00
9.000000e-01
1.000000e+00
9.000000e-01
1.000000e+00
9.000000e-01
1.000000e+00
9.000000e-01
1.000000e+00
9.000000e-01
1.000000e+00
9.000000e-01
1.000000e+00
9.000000e-01
1.000000e+00
9.000000e-01
1.000000e+00
9.000000e-01
1.000000e+00
9.000000e-01
1.000000e+00
9.000000e-01
1.000000e+00
9.000000e-01
1.000000e+00
9.000000e-01
1.000000e+00
9.000000e-01
1.000000e+00
9.000000e-01
1.000000e+00
9.000000e-01
1.000000e+00
9.000000e-01
1.000000e+00
9.000000e-01
1.000000e+00
9.000000e-01
1.000000e+00
9.000000e-01
1.000000e+00
9.000000e-01
1.000000e+00
9.000000e-01
1.000000e+00
9.000000e-01
1.000000e+00
9.000000e-01
1.000000e+00
9.000000e-01
1.000000e+00
9.000000e-01
1.000000e+00
9.000000e-01
1.000000e+00
9.000000e-01
1.000000e+00
9.000000e-01
1.000000e+00
9.000000e-01
1.000000e+00
9.000000e-01
1.000000e+00
9.000000e-01
1.000000e+00
9.000000e-01
1.000000e+00
9.000000e-01
1.000000e+00
9.000000e-01
1.000000e+00
9.000000e-01
1.000000e+00
9.000000e-01
1.000000e+00
9.000000e-01
1.000000e+00
9.000000e-01
1.000000e+00
9.000000e-01
1.000000e+00
9.000000e-01
1.000000e+00
9.000000e-01
1.000000e+00
9.000000e-01
1.000000e+00
9.000000e-01
1.000000e+00
9.000000e-01
1.000000e+00
9.000000e-01
1.000000e+00
9.000000e-01
1.000000e+00
9.000000e-01
1.000000e+00
9.000000e-01
1.000000e+00
9.000000e-01
1.000000e+00
</DataArray>
<DataArray type="Float32" Name="V5" format="ascii">
0.000000e+00
0.000000e+00
3.272490e-02
3.272490e-02
3.272490e-02
3.272490e-02
6.544980e-02
6.544980e-02
6.544980e-02
6.544980e-02
9.817480e-02
9.817480e-02
9.817480e-02
9.817480e-02
1.309000e-01
1.309000e-01
1.309000e-01
1.309000e-01
1.636250e-01
1.636250e-01
1.636250e-01
1.636250e-01
1.963500e-01
1.963500e-01
1.963500e-01
1.963500e-01
2.290740e-01
2.290740e-01
2.290740e-01
2.290740e-01
2.617990e-01
2.617990e-01
2.617990e-01
2.617990e-01
2.945240e-01
2.945240e-01
2.945240e-01
2.945240e-01
3.272490e-01
3.272490e-01
3.272490e-01
3.272490e-01
3.599740e-01
3.599740e-01
3.599740e-01
3.599740e-01
3.926990e-01
3.926990e-01
3.926990e-01
3.926990e-01
4.254240e-01
4.254240e-01
4.254240e-01
4.254240e-01
4.581490e-01
4.581490e-01
4.581490e-01
4.581490e-01
4.908740e-01
4.908740e-01
4.908740e-01
4.908740e-01
5.235990e-01
5.235990e-01
5.235990e-01
5.235990e-01
5.563240e-01
5.563240e-01
5.563240e-01
5.563240e-01
5.890490e-01
5.890490e-01
5.890490e-01
5.890490e-01
6.217740e-01
6.217740e-01
6.217740e-01
6.217740e-01
6.544980e-01
6.544980e-01
6.544980e-01
6.544980e-01
6.872230e-01
6.872230e-01
6.872230e-01
6.872230e-01
7.199480e-01
7.199480e-01
7.199480e-01
7.199480e-01
7.526730e-01
7.526730e-01
7.526730e-01
7.526730e-01
7.853980e-01
7.853980e-01
7.853980e-01
7.853980e-01
8.181230e-01
8.181230e-01
8.181230e-01
8.181230e-01
8.508480e-01
8.508480e-01
8.508480e-01
8.508480e-01
8.835730e-01
8.835730e-01
8.835730e-01
8.835730e-01
9.162980e-01
9.162980e-01
9.162980e-01
9.162980e-01
9.490230e-01
9.490230e-01
9.490230e-01
9.490230e-01
9.817480e-01
9.817480e-01
9.817480e-01
9.817480e-01
1.014470e+00
1.014470e+00
1.014470e+00
1.014470e+00
1.047200e+00
1.047200e+00
1.047200e+00
1.047200e+00
1.079920e+00
1.079920e+00
1.079920e+00
1.079920e+00
1.112650e+00
1.112650e+00
1.112650e+00
1.112650e+00
1.145370e+00
1.145370e+00
1.145370e+00
1.145370e+00
1.178100e+00
1.178100e+00
1.178100e+00
1.178100e+00
1.210820e+00
1.210820e+00
1.210820e+00
1.210820e+00
1.243550e+00
1.243550e+00
1.243550e+00
1.243550e+00
1.276270e+00
1.276270e+00
1.276270e+00
1.276270e+00
1.309000e+00
1.309000e+00
1.309000e+00
1.309000e+00
1.341720e+00
1.341720e+00
1.341720e+00
1.341720e+00
1.374450e+00
1.374450e+00
1.374450e+00
1.374450e+00
1.407170e+00
1.407170e+00
1.407170e+00
1.407170e+00
1.439900e+00
1.439900e+00
1.439900e+00
1.439900e+00
1.472620e+00
1.472620e+00
1.472620e+00
1.472620e+00
1.505350e+00
1.505350e+00
1.505350e+00
1.505350e+00
1.538070e+00
1.538070e+00
1.538070e+00
1.538070e+00
1.570800e+00
1.570800e+00
</DataArray>
</PointData>
</Piece></UnstructuredGrid>
</VTKFile>
