<?xml version="1.0"?>
<VTKFile type="UnstructuredGrid" version="0.1" byte_order="LittleEndian" compressor="vtkZLibDataCompressor">
<UnstructuredGrid>
<Piece NumberOfPoints="192" NumberOfCells="48">
<Points>
<DataArray type="Float32" NumberOfComponents="3" format="ascii">
0.000000e+00 8.391190e-01 0.000000e+00
0.000000e+00 9.400000e-01 0.000000e+00
3.087710e-02 8.391660e-01 0.000000e+00
3.109230e-02 9.400000e-01 0.000000e+00
3.087710e-02 8.391660e-01 0.000000e+00
3.109230e-02 9.400000e-01 0.000000e+00
6.168120e-02 8.392970e-01 0.000000e+00
6.226190e-02 9.400000e-01 0.000000e+00
6.168120e-02 8.392970e-01 0.000000e+00
6.226190e-02 9.400000e-01 0.000000e+00
9.231960e-02 8.394680e-01 0.000000e+00
9.358860e-02 9.400000e-01 0.000000e+00
9.231960e-02 8.394680e-01 0.000000e+00
9.358860e-02 9.400000e-01 0.000000e+00
1.226720e-01 8.395680e-01 0.000000e+00
1.251450e-01 9.400000e-01 0.000000e+00
1.226720e-01 8.395680e-01 0.000000e+00
1.251450e-01 9.400000e-01 0.000000e+00
1.526340e-01 8.393580e-01 0.000000e+00
1.569700e-01 9.400000e-01 0.000000e+00
1.526340e-01 8.393580e-01 0.000000e+00
1.569700e-01 9.400000e-01 0.000000e+00
1.822930e-01 8.386020e-01 0.000000e+00
1.889730e-01 9.394920e-01 0.000000e+00
1.822930e-01 8.386020e-01 0.000000e+00
1.889730e-01 9.394920e-01 0.000000e+00
2.115300e-01 8.370170e-01 0.000000e+00
2.211680e-01 9.375530e-01 0.000000e+00
2.115300e-01 8.370170e-01 0.000000e+00
2.211680e-01 9.375530e-01 0.000000e+00
2.404020e-01 8.344020e-01 0.000000e+00
2.534900e-01 9.343780e-01 0.000000e+00
2.404020e-01 8.344020e-01 0.000000e+00
2.534900e-01 9.343780e-01 0.000000e+00
2.689590e-01 8.306400e-01 0.000000e+00
2.858210e-01 9.298750e-01 0.000000e+00
2.689590e-01 8.306400e-01 0.000000e+00
2.858210e-01 9.298750e-01 0.000000e+00
2.972080e-01 8.256740e-01 0.000000e+00
3.180440e-01 9.239780e-01 0.000000e+00
2.972080e-01 8.256740e-01 0.000000e+00
3.180440e-01 9.239780e-01 0.000000e+00
3.251340e-01 8.194740e-01 0.000000e+00
3.500480e-01 9.166560e-01 0.000000e+00
3.251340e-01 8.194740e-01 0.000000e+00
3.500480e-01 9.166560e-01 0.000000e+00
3.527140e-01 8.120270e-01 0.000000e+00
3.817360e-01 9.079040e-01 0.000000e+00
3.527140e-01 8.120270e-01 0.000000e+00
3.817360e-01 9.079040e-01 0.000000e+00
3.799180e-01 8.033390e-01 0.000000e+00
4.130200e-01 8.977370e-01 0.000000e+00
3.799180e-01 8.033390e-01 0.000000e+00
4.130200e-01 8.977370e-01 0.000000e+00
4.067120e-01 7.934270e-01 0.000000e+00
4.438240e-01 8.861870e-01 0.000000e+00
4.067120e-01 7.934270e-01 0.000000e+00
4.438240e-01 8.861870e-01 0.000000e+00
4.330640e-01 7.823160e-01 0.000000e+00
4.740800e-01 8.732970e-01 0.000000e+00
4.330640e-01 7.823160e-01 0.000000e+00
4.740800e-01 8.732970e-01 0.000000e+00
4.589410e-01 7.700410e-01 0.000000e+00
5.037350e-01 8.591180e-01 0.000000e+00
4.589410e-01 7.700410e-01 0.000000e+00
5.037350e-01 8.591180e-01 0.000000e+00
4.843100e-01 7.566410e-01 0.000000e+00
5.327400e-01 8.437020e-01 0.000000e+00
4.843100e-01 7.566410e-01 0.000000e+00
5.327400e-01 8.437020e-01 0.000000e+00
5.091420e-01 7.421590e-01 0.000000e+00
5.610580e-01 8.271090e-01 0.000000e+00
5.091420e-01 7.421590e-01 0.000000e+00
5.610580e-01 8.271090e-01 0.000000e+00
5.334090e-01 7.266380e-01 0.000000e+00
5.886560e-01 8.093940e-01 0.000000e+00
5.334090e-01 7.266380e-01 0.000000e+00
5.886560e-01 8.093940e-01 0.000000e+00
5.570830e-01 7.101240e-01 0.000000e+00
6.155090e-01 7.906130e-01 0.000000e+00
5.570830e-01 7.101240e-01 0.000000e+00
6.155090e-01 7.906130e-01 0.000000e+00
5.801410e-01 6.926620e-01 0.000000e+00
6.415940e-01 7.708200e-01 0.000000e+00
5.801410e-01 6.926620e-01 0.000000e+00
6.415940e-01 7.708200e-01 0.000000e+00
6.025600e-01 6.742960e-01 0.000000e+00
6.668920e-01 7.500670e-01 0.000000e+00
6.025600e-01 6.742960e-01 0.000000e+00
6.668920e-01 7.500670e-01 0.000000e+00
6.243170e-01 6.550710e-01 0.000000e+00
6.913880e-01 7.284030e-01 0.000000e+00
6.243170e-01 6.550710e-01 0.000000e+00
6.913880e-01 7.284030e-01 0.000000e+00
6.453940e-01 6.350290e-01 0.000000e+00
7.150670e-01 7.058740e-01 0.000000e+00
6.453940e-01 6.350290e-01 0.000000e+00
7.150670e-01 7.058740e-01 0.000000e+00
6.657700e-01 6.142100e-01 0.000000e+00
7.379160e-01 6.825230e-01 0.000000e+00
6.657700e-01 6.142100e-01 0.000000e+00
7.379160e-01 6.825230e-01 0.000000e+00
6.854280e-01 5.926540e-01 0.000000e+00
7.599220e-01 6.583920e-01 0.000000e+00
6.854280e-01 5.926540e-01 0.000000e+00
7.599220e-01 6.583920e-01 0.000000e+00
7.043500e-01 5.703990e-01 0.000000e+00
7.810720e-01 6.335200e-01 0.000000e+00
7.043500e-01 5.703990e-01 0.000000e+00
7.810720e-01 6.335200e-01 0.000000e+00
7.225190e-01 5.474820e-01 0.000000e+00
8.013540e-01 6.079440e-01 0.000000e+00
7.225190e-01 5.474820e-01 0.000000e+00
8.013540e-01 6.079440e-01 0.000000e+00
7.399180e-01 5.239370e-01 0.000000e+00
8.207550e-01 5.817000e-01 0.000000e+00
7.399180e-01 5.239370e-01 0.000000e+00
8.207550e-01 5.817000e-01 0.000000e+00
7.565320e-01 4.998000e-01 0.000000e+00
8.392640e-01 5.548230e-01 0.000000e+00
7.565320e-01 4.998000e-01 0.000000e+00
8.392640e-01 5.548230e-01 0.000000e+00
7.723460e-01 4.751040e-01 0.000000e+00
8.568680e-01 5.273450e-01 0.000000e+00
7.723460e-01 4.751040e-01 0.000000e+00
8.568680e-01 5.273450e-01 0.000000e+00
7.873450e-01 4.498810e-01 0.000000e+00
8.735530e-01 4.993010e-01 0.000000e+00
7.873450e-01 4.498810e-01 0.000000e+00
8.735530e-01 4.993010e-01 0.000000e+00
8.015140e-01 4.241620e-01 0.000000e+00
8.893070e-01 4.707220e-01 0.000000e+00
8.015140e-01 4.241620e-01 0.000000e+00
8.893070e-01 4.707220e-01 0.000000e+00
8.148400e-01 3.979810e-01 0.000000e+00
9.041170e-01 4.416400e-01 0.000000e+00
8.148400e-01 3.979810e-01 0.000000e+00
9.041170e-01 4.416400e-01 0.000000e+00
8.273090e-01 3.713670e-01 0.000000e+00
9.179700e-01 4.120890e-01 0.000000e+00
8.273090e-01 3.713670e-01 0.000000e+00
9.179700e-01 4.120890e-01 0.000000e+00
8.389090e-01 3.443510e-01 0.000000e+00
9.308540e-01 3.820980e-01 0.000000e+00
8.389090e-01 3.443510e-01 0.000000e+00
9.308540e-01 3.820980e-01 0.000000e+00
8.496280e-01 3.169640e-01 0.000000e+00
9.427570e-01 3.517020e-01 0.000000e+00
8.496280e-01 3.169640e-01 0.000000e+00
9.427570e-01 3.517020e-01 0.000000e+00
8.594550e-01 2.892370e-01 0.000000e+00
9.536680e-01 3.209320e-01 0.000000e+00
8.594550e-01 2.892370e-01 0.000000e+00
9.536680e-01 3.209320e-01 0.000000e+00
8.683780e-01 2.612000e-01 0.000000e+00
9.635750e-01 2.898210e-01 0.000000e+00
8.683780e-01 2.612000e-01 0.000000e+00
9.635750e-01 2.898210e-01 0.000000e+00
8.763900e-01 2.328840e-01 0.000000e+00
9.724690e-01 2.584010e-01 0.000000e+00
8.763900e-01 2.328840e-01 0.000000e+00
9.724690e-01 2.584010e-01 0.000000e+00
8.834800e-01 2.043190e-01 0.000000e+00
9.803390e-01 2.267070e-01 0.000000e+00
8.834800e-01 2.043190e-01 0.000000e+00
9.803390e-01 2.267070e-01 0.000000e+00
8.896410e-01 1.755370e-01 0.000000e+00
9.871780e-01 1.947710e-01 0.000000e+00
8.896410e-01 1.755370e-01 0.000000e+00
9.871780e-01 1.947710e-01 0.000000e+00
8.948660e-01 1.465670e-01 0.000000e+00
9.929780e-01 1.626280e-01 0.000000e+00
8.948660e-01 1.465670e-01 0.000000e+00
9.929780e-01 1.626280e-01 0.000000e+00
8.991490e-01 1.174410e-01 0.000000e+00
9.977330e-01 1.303110e-01 0.000000e+00
8.991490e-01 1.174410e-01 0.000000e+00
9.977330e-01 1.303110e-01 0.000000e+00
9.024850e-01 8.819030e-02 0.000000e+00
1.001440e+00 9.785530e-02 0.000000e+00
9.024850e-01 8.819030e-02 0.000000e+00
1.001440e+00 9.785530e-02 0.000000e+00
9.048710e-01 5.884570e-02 0.000000e+00
1.004090e+00 6.529500e-02 0.000000e+00
9.048710e-01 5.884570e-02 0.000000e+00
1.004090e+00 6.529500e-02 0.000000e+00
9.063040e-01 2.943850e-02 0.000000e+00
1.005680e+00 3.266490e-02 0.000000e+00
9.063040e-01 2.943850e-02 0.000000e+00
1.005680e+00 3.266490e-02 0.000000e+00
9.067810e-01 4.440140e-12 0.000000e+00
1.006210e+00 4.926980e-12 0.000000e+00
</DataArray>
</Points>
<Cells>
<DataArray type="Int32" Name="connectivity" format="ascii">
0 1 3 2
4 5 7 6
8 9 11 10
12 13 15 14
16 17 19 18
20 21 23 22
24 25 27 26
28 29 31 30
32 33 35 34
36 37 39 38
40 41 43 42
44 45 47 46
48 49 51 50
52 53 55 54
56 57 59 58
60 61 63 62
64 65 67 66
68 69 71 70
72 73 75 74
76 77 79 78
80 81 83 82
84 85 87 86
88 89 91 90
92 93 95 94
96 97 99 98
100 101 103 102
104 105 107 106
108 109 111 110
112 113 115 114
116 117 119 118
120 121 123 122
124 125 127 126
128 129 131 130
132 133 135 134
136 137 139 138
140 141 143 142
144 145 147 146
148 149 151 150
152 153 155 154
156 157 159 158
160 161 163 162
164 165 167 166
168 169 171 170
172 173 175 174
176 177 179 178
180 181 183 182
184 185 187 186
188 189 191 190
</DataArray>
<DataArray type="Int32" Name="offsets" format="ascii">
4
8
12
16
20
24
28
32
36
40
44
48
52
56
60
64
68
72
76
80
84
88
92
96
100
104
108
112
116
120
124
128
132
136
140
144
148
152
156
160
164
168
172
176
180
184
188
192
</DataArray>
<DataArray type="UInt8" Name="types" format="ascii">
9
9
9
9
9
9
9
9
9
9
9
9
9
9
9
9
9
9
9
9
9
9
9
9
9
9
9
9
9
9
9
9
9
9
9
9
9
9
9
9
9
9
9
9
9
9
9
9
</DataArray>
</Cells>
<PointData>
<DataArray type="Float32" Name="V1" format="ascii">
8.701160e-01
-1.207230e+00
8.667630e-01
-1.210590e+00
8.505810e-01
-1.194240e+00
8.424220e-01
-1.202400e+00
8.003080e-01
-1.162300e+00
7.917740e-01
-1.170840e+00
7.061930e-01
-1.091190e+00
7.093070e-01
-1.088080e+00
5.541850e-01
-9.448020e-01
5.955340e-01
-9.034530e-01
3.597330e-01
-6.554690e-01
4.173200e-01
-5.978810e-01
2.388610e-01
-4.395650e-01
2.532050e-01
-4.252210e-01
1.299080e-01
-3.103270e-01
1.429850e-01
-2.972500e-01
4.621830e-02
-2.063860e-01
6.056270e-02
-1.920420e-01
-1.402730e-02
-1.221370e-01
8.040700e-04
-1.073060e-01
-5.545840e-02
-5.471770e-02
-4.084130e-02
-4.010060e-02
-8.193310e-02
-1.772070e-03
-6.799250e-02
1.216860e-02
-9.662940e-02
3.883800e-02
-8.367120e-02
5.179620e-02
-1.022210e-01
6.904950e-02
-9.043890e-02
8.083190e-02
-1.009660e-01
9.060930e-02
-9.046410e-02
1.011110e-01
-9.475160e-02
1.050810e-01
-8.556330e-02
1.142690e-01
-8.513250e-02
1.138500e-01
-7.723680e-02
1.217460e-01
-7.336500e-02
1.181260e-01
-6.670060e-02
1.247910e-01
-6.044190e-02
1.189510e-01
-5.492030e-02
1.244730e-01
-4.712800e-02
1.172060e-01
-4.264380e-02
1.216900e-01
-3.399390e-02
1.136250e-01
-3.043320e-02
1.171860e-01
-2.144860e-02
1.088080e-01
-1.869580e-02
1.115610e-01
-9.769330e-03
1.032360e-01
-7.711510e-03
1.052940e-01
8.722820e-04
9.728790e-02
2.341910e-03
9.875750e-02
1.038690e-02
9.125260e-02
1.136700e-02
9.223260e-02
1.874810e-02
8.534590e-02
1.932770e-02
8.592540e-02
2.597580e-02
7.972170e-02
2.623410e-02
7.998000e-02
3.212290e-02
7.448410e-02
3.212920e-02
7.449040e-02
3.726440e-02
6.969720e-02
3.707840e-02
6.951120e-02
4.148910e-02
6.539370e-02
4.116150e-02
6.506610e-02
4.489290e-02
6.158240e-02
4.446610e-02
6.115560e-02
4.757380e-02
5.825400e-02
4.708280e-02
5.776300e-02
4.962810e-02
5.538630e-02
4.910130e-02
5.485940e-02
5.114820e-02
5.294800e-02
5.060810e-02
5.240790e-02
5.222050e-02
5.090230e-02
5.168490e-02
5.036670e-02
5.292440e-02
4.920910e-02
5.240680e-02
4.869150e-02
5.333200e-02
4.782740e-02
5.284230e-02
4.733780e-02
5.350750e-02
4.671660e-02
5.305290e-02
4.626200e-02
5.350760e-02
4.583730e-02
5.309290e-02
4.542250e-02
5.338170e-02
4.515280e-02
5.300990e-02
4.478090e-02
5.317230e-02
4.462930e-02
5.284490e-02
4.430190e-02
5.291520e-02
4.423620e-02
5.263290e-02
4.395390e-02
5.264070e-02
4.394660e-02
5.240340e-02
4.370930e-02
5.237340e-02
4.373740e-02
5.218070e-02
4.354460e-02
5.213300e-02
4.358910e-02
5.198420e-02
4.344020e-02
5.193480e-02
4.348630e-02
5.182910e-02
4.338060e-02
5.178970e-02
4.341730e-02
5.172660e-02
4.335410e-02
5.170500e-02
4.337430e-02
5.168400e-02
4.335330e-02
</DataArray>
<DataArray type="Float32" Name="V2" format="ascii">
8.391190e-01
9.400000e-01
8.397270e-01
9.405140e-01
8.397270e-01
9.405140e-01
8.415340e-01
9.420600e-01
8.415340e-01
9.420600e-01
8.444750e-01
9.446470e-01
8.444750e-01
9.446470e-01
8.483970e-01
9.482930e-01
8.483970e-01
9.482930e-01
8.530110e-01
9.530140e-01
8.530110e-01
9.530140e-01
8.580520e-01
9.583070e-01
8.580520e-01
9.583070e-01
8.631850e-01
9.632830e-01
8.631850e-01
9.632830e-01
8.681910e-01
9.681480e-01
8.681910e-01
9.681480e-01
8.729470e-01
9.728040e-01
8.729470e-01
9.728040e-01
8.773900e-01
9.771740e-01
8.773900e-01
9.771740e-01
8.814790e-01
9.812080e-01
8.814790e-01
9.812080e-01
8.851930e-01
9.848780e-01
8.851930e-01
9.848780e-01
8.885270e-01
9.881720e-01
8.885270e-01
9.881720e-01
8.914870e-01
9.910950e-01
8.914870e-01
9.910950e-01
8.940860e-01
9.936590e-01
8.940860e-01
9.936590e-01
8.963460e-01
9.958850e-01
8.963460e-01
9.958850e-01
8.982900e-01
9.977970e-01
8.982900e-01
9.977970e-01
8.999470e-01
9.994230e-01
8.999470e-01
9.994230e-01
9.013440e-01
1.000790e+00
9.013440e-01
1.000790e+00
9.025100e-01
1.001930e+00
9.025100e-01
1.001930e+00
9.034720e-01
1.002870e+00
9.034720e-01
1.002870e+00
9.042580e-01
1.003640e+00
9.042580e-01
1.003640e+00
9.048910e-01
1.004260e+00
9.048910e-01
1.004260e+00
9.053960e-01
1.004760e+00
9.053960e-01
1.004760e+00
9.057910e-01
1.005150e+00
9.057910e-01
1.005150e+00
9.060960e-01
1.005450e+00
9.060960e-01
1.005450e+00
9.063270e-01
1.005680e+00
9.063270e-01
1.005680e+00
9.064980e-01
1.005850e+00
9.064980e-01
1.005850e+00
9.066220e-01
1.005980e+00
9.066220e-01
1.005980e+00
9.067080e-01
1.006070e+00
9.067080e-01
1.006070e+00
9.067650e-01
1.006130e+00
9.067650e-01
1.006130e+00
9.068010e-01
1.006170e+00
9.068010e-01
1.006170e+00
9.068210e-01
1.006200e+00
9.068210e-01
1.006200e+00
9.068300e-01
1.006210e+00
9.068300e-01
1.006210e+00
9.068320e-01
1.006220e+00
9.068320e-01
1.006220e+00
9.068280e-01
1.006220e+00
9.068280e-01
1.006220e+00
9.068230e-01
1.006220e+00
9.068230e-01
1.006220e+00
9.068160e-01
1.006220e+00
9.068160e-01
1.006220e+00
9.068090e-01
1.006210e+00
9.068090e-01
1.006210e+00
9.068020e-01
1.006210e+00
9.068020e-01
1.006210e+00
9.067960e-01
1.006210e+00
9.067960e-01
1.006210e+00
9.067920e-01
1.006210e+00
9.067920e-01
1.006210e+00
9.067880e-01
1.006210e+00
9.067880e-01
1.006210e+00
9.067850e-01
1.006210e+00
9.067850e-01
1.006210e+00
9.067840e-01
1.006210e+00
9.067840e-01
1.006210e+00
9.067820e-01
1.006210e+00
9.067820e-01
1.006210e+00
9.067820e-01
1.006210e+00
9.067820e-01
1.006210e+00
9.067810e-01
1.006210e+00
</DataArray>
<DataArray type="Float32" Name="V3" format="ascii">
0.000000e+00
0.000000e+00
3.403800e-03
3.197080e-04
3.403800e-03
3.197080e-04
6.656550e-03
6.496830e-04
6.656550e-03
6.496830e-04
9.592810e-03
1.001860e-03
9.592810e-03
1.001860e-03
1.203730e-02
1.379980e-03
1.203730e-02
1.379980e-03
1.386800e-02
1.751170e-03
1.386800e-02
1.751170e-03
1.518710e-02
2.055900e-03
1.518710e-02
2.055900e-03
1.593720e-02
2.494270e-03
1.593720e-02
2.494270e-03
1.625120e-02
3.018080e-03
1.625120e-02
3.018080e-03
1.625590e-02
3.585530e-03
1.625590e-02
3.585530e-03
1.603100e-02
4.162050e-03
1.603100e-02
4.162050e-03
1.563560e-02
4.720020e-03
1.563560e-02
4.720020e-03
1.511610e-02
5.238640e-03
1.511610e-02
5.238640e-03
1.450960e-02
5.702890e-03
1.450960e-02
5.702890e-03
1.384550e-02
6.102630e-03
1.384550e-02
6.102630e-03
1.314750e-02
6.431880e-03
1.314750e-02
6.431880e-03
1.243390e-02
6.688150e-03
1.243390e-02
6.688150e-03
1.171940e-02
6.871820e-03
1.171940e-02
6.871820e-03
1.101500e-02
6.985510e-03
1.101500e-02
6.985510e-03
1.032910e-02
7.033600e-03
1.032910e-02
7.033600e-03
9.667830e-03
7.021600e-03
9.667830e-03
7.021600e-03
9.035220e-03
6.955760e-03
9.035220e-03
6.955760e-03
8.433890e-03
6.842670e-03
8.433890e-03
6.842670e-03
7.865140e-03
6.688930e-03
7.865140e-03
6.688930e-03
7.329250e-03
6.500950e-03
7.329250e-03
6.500950e-03
6.825660e-03
6.284720e-03
6.825660e-03
6.284720e-03
6.353220e-03
6.045740e-03
6.353220e-03
6.045740e-03
5.910290e-03
5.788960e-03
5.910290e-03
5.788960e-03
5.494920e-03
5.518710e-03
5.494920e-03
5.518710e-03
5.104950e-03
5.238710e-03
5.104950e-03
5.238710e-03
4.738100e-03
4.952140e-03
4.738100e-03
4.952140e-03
4.392060e-03
4.661600e-03
4.392060e-03
4.661600e-03
4.064570e-03
4.369230e-03
4.064570e-03
4.369230e-03
3.753410e-03
4.076700e-03
3.753410e-03
4.076700e-03
3.456520e-03
3.785320e-03
3.456520e-03
3.785320e-03
3.171960e-03
3.496040e-03
3.171960e-03
3.496040e-03
2.897940e-03
3.209530e-03
2.897940e-03
3.209530e-03
2.632850e-03
2.926220e-03
2.632850e-03
2.926220e-03
2.375250e-03
2.646320e-03
2.375250e-03
2.646320e-03
2.123880e-03
2.369890e-03
2.123880e-03
2.369890e-03
1.877600e-03
2.096870e-03
1.877600e-03
2.096870e-03
1.635450e-03
1.827070e-03
1.635450e-03
1.827070e-03
1.396610e-03
1.560220e-03
1.396610e-03
1.560220e-03
1.160380e-03
1.295990e-03
1.160380e-03
1.295990e-03
9.261410e-04
1.034020e-03
9.261410e-04
1.034020e-03
6.933960e-04
7.738770e-04
6.933960e-04
7.738770e-04
4.617060e-04
5.151340e-04
4.617060e-04
5.151340e-04
2.306900e-04
2.573310e-04
2.306900e-04
2.573310e-04
0.000000e+00
0.000000e+00
</DataArray>
<DataArray type="Float32" Name="V4" format="ascii">
9.000000e-01
1.000000e+00
9.000000e-01
1.000000e+00
9.000000e-01
1.000000e+00
9.000000e-01
1.000000e+00
9.000000e-01
1.000000e+00
9.000000e-01
1.000000e+00
9.000000e-01
1.000000e+00
9.000000e-01
1.000000e+00
9.000000e-01
1.000000e+00
9.000000e-01
1.000000e+00
9.000000e-01
1.000000e+00
9.000000e-01
1.000000e+00
9.000000e-01
1.000000e+00
9.000000e-01
1.000000e+00
9.000000e-01
1.000000e+00
9.000000e-01
1.000000e+00
9.000000e-01
1.000000e+00
9.000000e-01
1.000000e+00
9.000000e-01
1.000000e+00
9.000000e-01
1.000000e+00
9.000000e-01
1.000000e+00
9.000000e-01
1.000000e+00
9.000000e-01
1.000000e+00
9.000000e-01
1.000000e+00
9.000000e-01
1.000000e+00
9.000000e-01
1.000000e+00
9.000000e-01
1.000000e+00
9.000000e-01
1.000000e+00
9.000000e-01
1.000000e+00
9.000000e-01
1.000000e+00
9.000000e-01
1.000000e+00
9.000000e-01
1.000000e+00
9.000000e-01
1.000000e+00
9.000000e-01
1.000000e+00
9.000000e-01
1.000000e+00
9.000000e-01
1.000000e+00
9.000000e-01
1.000000e+00
9.000000e-01
1.000000e+00
9.000000e-01
1.000000e+00
9.000000e-01
1.000000e+00
9.000000e-01
1.000000e+00
9.000000e-01
1.000000e+00
9.000000e-01
1.000000e+00
9.000000e-01
1.000000e+00
9.000000e-01
1.000000e+00
9.000000e-01
1.000000e+00
9.000000e-01
1.000000e+00
9.000000e-01
1.000000e+00
9.000000e-01
1.000000e+00
9.000000e-01
1.000000e+00
9.000000e-01
1.000000e+00
9.000000e-01
1.000000e+00
9.000000e-01
1.000000e+00
9.000000e-01
1.000000e+00
9.000000e-01
1.000000e+00
9.000000e-01
1.000000e+00
9.000000e-01
1.000000e+00
9.000000e-01
1.000000e+00
9.000000e-01
1.000000e+00
9.000000e-01
1.000000e+00
9.000000e-01
1.000000e+00
9.000000e-01
1.000000e+00
9.000000e-01
1.000000e+00
9.000000e-01
1.000000e+00
9.000000e-01
1.000000e+00
9.000000e-01
1.000000e+00
9.000000e-01
1.000000e+00
9.000000e-01
1.000000e+00
9.000000e-01
1.000000e+00
9.000000e-01
1.000000e+00
9.000000e-01
1.000000e+00
9.000000e-01
1.000000e+00
9.000000e-01
1.000000e+00
9.000000e-01
1.000000e+00
9.000000e-01
1.000000e+00
9.000000e-01
1.000000e+00
9.000000e-01
1.000000e+00
9.000000e-01
1.000000e+00
9.000000e-01
1.000000e+00
9.000000e-01
1.000000e+00
9.000000e-01
1.000000e+00
9.000000e-01
1.000000e+00
9.000000e-01
1.000000e+00
9.000000e-01
1.000000e+00
9.000000e-01
1.000000e+00
9.000000e-01
1.000000e+00
9.000000e-01
1.000000e+00
9.000000e-01
1.000000e+00
9.000000e-01
1.000000e+00
9.000000e-01
1.000000e+00
9.000000e-01
1.000000e+00
9.000000e-01
1.000000e+00
9.000000e-01
1.000000e+00
9.000000e-01
1.000000e+00
9.000000e-01
1.000000e+00
9.000000e-01
1.000000e+00
</DataArray>
<DataArray type="Float32" Name="V5" format="ascii">
0.000000e+00
0.000000e+00
3.272490e-02
3.272490e-02
3.272490e-02
3.272490e-02
6.544980e-02
6.544980e-02
6.544980e-02
6.544980e-02
9.817480e-02
9.817480e-02
9.817480e-02
9.817480e-02
1.309000e-01
1.309000e-01
1.309000e-01
1.309000e-01
1.636250e-01
1.636250e-01
1.636250e-01
1.636250e-01
1.963500e-01
1.963500e-01
1.963500e-01
1.963500e-01
2.290740e-01
2.290740e-01
2.290740e-01
2.290740e-01
2.617990e-01
2.617990e-01
2.617990e-01
2.617990e-01
2.945240e-01
2.945240e-01
2.945240e-01
2.945240e-01
3.272490e-01
3.272490e-01
3.272490e-01
3.272490e-01
3.599740e-01
3.599740e-01
3.599740e-01
3.599740e-01
3.926990e-01
3.926990e-01
3.926990e-01
3.926990e-01
4.254240e-01
4.254240e-01
4.254240e-01
4.254240e-01
4.581490e-01
4.581490e-01
4.581490e-01
4.581490e-01
4.908740e-01
4.908740e-01
4.908740e-01
4.908740e-01
5.235990e-01
5.235990e-01
5.235990e-01
5.235990e-01
5.563240e-01
5.563240e-01
5.563240e-01
5.563240e-01
5.890490e-01
5.890490e-01
5.890490e-01
5.890490e-01
6.217740e-01
6.217740e-01
6.217740e-01
6.217740e-01
6.544980e-01
6.544980e-01
6.544980e-01
6.544980e-01
6.872230e-01
6.872230e-01
6.872230e-01
6.872230e-01
7.199480e-01
7.199480e-01
7.199480e-01
7.199480e-01
7.526730e-01
7.526730e-01
7.526730e-01
7.526730e-01
7.853980e-01
7.853980e-01
7.853980e-01
7.853980e-01
8.181230e-01
8.181230e-01
8.181230e-01
8.181230e-01
8.508480e-01
8.508480e-01
8.508480e-01
8.508480e-01
8.835730e-01
8.835730e-01
8.835730e-01
8.835730e-01
9.162980e-01
9.162980e-01
9.162980e-01
9.162980e-01
9.490230e-01
9.490230e-01
9.490230e-01
9.490230e-01
9.817480e-01
9.817480e-01
9.817480e-01
9.817480e-01
1.014470e+00
1.014470e+00
1.014470e+00
1.014470e+00
1.047200e+00
1.047200e+00
1.047200e+00
1.047200e+00
1.079920e+00
1.079920e+00
1.079920e+00
1.079920e+00
1.112650e+00
1.112650e+00
1.112650e+00
1.112650e+00
1.145370e+00
1.145370e+00
1.145370e+00
1.145370e+00
1.178100e+00
1.178100e+00
1.178100e+00
1.178100e+00
1.210820e+00
1.210820e+00
1.210820e+00
1.210820e+00
1.243550e+00
1.243550e+00
1.243550e+00
1.243550e+00
1.276270e+00
1.276270e+00
1.276270e+00
1.276270e+00
1.309000e+00
1.309000e+00
1.309000e+00
1.309000e+00
1.341720e+00
1.341720e+00
1.341720e+00
1.341720e+00
1.374450e+00
1.374450e+00
1.374450e+00
1.374450e+00
1.407170e+00
1.407170e+00
1.407170e+00
1.407170e+00
1.439900e+00
1.439900e+00
1.439900e+00
1.439900e+00
1.472620e+00
1.472620e+00
1.472620e+00
1.472620e+00
1.505350e+00
1.505350e+00
1.505350e+00
1.505350e+00
1.538070e+00
1.538070e+00
1.538070e+00
1.538070e+00
1.570800e+00
1.570800e+00
</DataArray>
</PointData>
</Piece></UnstructuredGrid>
</VTKFile>
