<?xml version="1.0"?>
<VTKFile type="UnstructuredGrid" version="0.1" byte_order="LittleEndian" compressor="vtkZLibDataCompressor">
<UnstructuredGrid>
<Piece NumberOfPoints="192" NumberOfCells="48">
<Points>
<DataArray type="Float32" NumberOfComponents="3" format="ascii">
0.000000e+00 5.356100e-01 0.000000e+00
0.000000e+00 6.200000e-01 0.000000e+00
3.387690e-02 5.356230e-01 0.000000e+00
3.384840e-02 6.200000e-01 0.000000e+00
3.387690e-02 5.356230e-01 0.000000e+00
3.384840e-02 6.200000e-01 0.000000e+00
6.775250e-02 5.356610e-01 0.000000e+00
6.769540e-02 6.200000e-01 0.000000e+00
6.775250e-02 5.356610e-01 0.000000e+00
6.769540e-02 6.200000e-01 0.000000e+00
1.016250e-01 5.357260e-01 0.000000e+00
1.015400e-01 6.200000e-01 0.000000e+00
1.016250e-01 5.357260e-01 0.000000e+00
1.015400e-01 6.200000e-01 0.000000e+00
1.354950e-01 5.358160e-01 0.000000e+00
1.353810e-01 6.200000e-01 0.000000e+00
1.354950e-01 5.358160e-01 0.000000e+00
1.353810e-01 6.200000e-01 0.000000e+00
1.693580e-01 5.359310e-01 0.000000e+00
1.692160e-01 6.200000e-01 0.000000e+00
1.693580e-01 5.359310e-01 0.000000e+00
1.692160e-01 6.200000e-01 0.000000e+00
2.032150e-01 5.360720e-01 0.000000e+00
2.030450e-01 6.200000e-01 0.000000e+00
2.032150e-01 5.360720e-01 0.000000e+00
2.030450e-01 6.200000e-01 0.000000e+00
2.370630e-01 5.362390e-01 0.000000e+00
2.368640e-01 6.200000e-01 0.000000e+00
2.370630e-01 5.362390e-01 0.000000e+00
2.368640e-01 6.200000e-01 0.000000e+00
2.709020e-01 5.364310e-01 0.000000e+00
2.706760e-01 6.200000e-01 0.000000e+00
2.709020e-01 5.364310e-01 0.000000e+00
2.706760e-01 6.200000e-01 0.000000e+00
3.047300e-01 5.366490e-01 0.000000e+00
3.044770e-01 6.200000e-01 0.000000e+00
3.047300e-01 5.366490e-01 0.000000e+00
3.044770e-01 6.200000e-01 0.000000e+00
3.385470e-01 5.368920e-01 0.000000e+00
3.382650e-01 6.200000e-01 0.000000e+00
3.385470e-01 5.368920e-01 0.000000e+00
3.382650e-01 6.200000e-01 0.000000e+00
3.723500e-01 5.371610e-01 0.000000e+00
3.720410e-01 6.200000e-01 0.000000e+00
3.723500e-01 5.371610e-01 0.000000e+00
3.720410e-01 6.200000e-01 0.000000e+00
4.061400e-01 5.374540e-01 0.000000e+00
4.058020e-01 6.200000e-01 0.000000e+00
4.061400e-01 5.374540e-01 0.000000e+00
4.058020e-01 6.200000e-01 0.000000e+00
4.399140e-01 5.377730e-01 0.000000e+00
4.395460e-01 6.200000e-01 0.000000e+00
4.399140e-01 5.377730e-01 0.000000e+00
4.395460e-01 6.200000e-01 0.000000e+00
4.736720e-01 5.381180e-01 0.000000e+00
4.732740e-01 6.200000e-01 0.000000e+00
4.736720e-01 5.381180e-01 0.000000e+00
4.732740e-01 6.200000e-01 0.000000e+00
5.074140e-01 5.384920e-01 0.000000e+00
5.069850e-01 6.200000e-01 0.000000e+00
5.074140e-01 5.384920e-01 0.000000e+00
5.069850e-01 6.200000e-01 0.000000e+00
5.411370e-01 5.388970e-01 0.000000e+00
5.406830e-01 6.200000e-01 0.000000e+00
5.411370e-01 5.388970e-01 0.000000e+00
5.406830e-01 6.200000e-01 0.000000e+00
5.748360e-01 5.393400e-01 0.000000e+00
5.743790e-01 6.200000e-01 0.000000e+00
5.748360e-01 5.393400e-01 0.000000e+00
5.743790e-01 6.200000e-01 0.000000e+00
6.084940e-01 5.398300e-01 0.000000e+00
6.081020e-01 6.200000e-01 0.000000e+00
6.084940e-01 5.398300e-01 0.000000e+00
6.081020e-01 6.200000e-01 0.000000e+00
6.420650e-01 5.403730e-01 0.000000e+00
6.419060e-01 6.200000e-01 0.000000e+00
6.420650e-01 5.403730e-01 0.000000e+00
6.419060e-01 6.200000e-01 0.000000e+00
6.754490e-01 5.409530e-01 0.000000e+00
6.758840e-01 6.200000e-01 0.000000e+00
6.754490e-01 5.409530e-01 0.000000e+00
6.758840e-01 6.200000e-01 0.000000e+00
7.084520e-01 5.414770e-01 0.000000e+00
7.101680e-01 6.200000e-01 0.000000e+00
7.084520e-01 5.414770e-01 0.000000e+00
7.101680e-01 6.200000e-01 0.000000e+00
7.407760e-01 5.416540e-01 0.000000e+00
7.448550e-01 6.200000e-01 0.000000e+00
7.407760e-01 5.416540e-01 0.000000e+00
7.448550e-01 6.200000e-01 0.000000e+00
7.723010e-01 5.409740e-01 0.000000e+00
7.797680e-01 6.198480e-01 0.000000e+00
7.723010e-01 5.409740e-01 0.000000e+00
7.797680e-01 6.198480e-01 0.000000e+00
8.030430e-01 5.386560e-01 0.000000e+00
8.145700e-01 6.169020e-01 0.000000e+00
8.030430e-01 5.386560e-01 0.000000e+00
8.145700e-01 6.169020e-01 0.000000e+00
8.328570e-01 5.342840e-01 0.000000e+00
8.493720e-01 6.110440e-01 0.000000e+00
8.328570e-01 5.342840e-01 0.000000e+00
8.493720e-01 6.110440e-01 0.000000e+00
8.619220e-01 5.275920e-01 0.000000e+00
8.838090e-01 6.023840e-01 0.000000e+00
8.619220e-01 5.275920e-01 0.000000e+00
8.838090e-01 6.023840e-01 0.000000e+00
8.902470e-01 5.185700e-01 0.000000e+00
9.175140e-01 5.909710e-01 0.000000e+00
8.902470e-01 5.185700e-01 0.000000e+00
9.175140e-01 5.909710e-01 0.000000e+00
9.177660e-01 5.072930e-01 0.000000e+00
9.502000e-01 5.769390e-01 0.000000e+00
9.177660e-01 5.072930e-01 0.000000e+00
9.502000e-01 5.769390e-01 0.000000e+00
9.443910e-01 4.938670e-01 0.000000e+00
9.816540e-01 5.604730e-01 0.000000e+00
9.443910e-01 4.938670e-01 0.000000e+00
9.816540e-01 5.604730e-01 0.000000e+00
9.700280e-01 4.784250e-01 0.000000e+00
1.011730e+00 5.417780e-01 0.000000e+00
9.700280e-01 4.784250e-01 0.000000e+00
1.011730e+00 5.417780e-01 0.000000e+00
9.945900e-01 4.611090e-01 0.000000e+00
1.040320e+00 5.210610e-01 0.000000e+00
9.945900e-01 4.611090e-01 0.000000e+00
1.040320e+00 5.210610e-01 0.000000e+00
1.018010e+00 4.420560e-01 0.000000e+00
1.067370e+00 4.985090e-01 0.000000e+00
1.018010e+00 4.420560e-01 0.000000e+00
1.067370e+00 4.985090e-01 0.000000e+00
1.040210e+00 4.214190e-01 0.000000e+00
1.092830e+00 4.743150e-01 0.000000e+00
1.040210e+00 4.214190e-01 0.000000e+00
1.092830e+00 4.743150e-01 0.000000e+00
1.061150e+00 3.993210e-01 0.000000e+00
1.116690e+00 4.486290e-01 0.000000e+00
1.061150e+00 3.993210e-01 0.000000e+00
1.116690e+00 4.486290e-01 0.000000e+00
1.080770e+00 3.759080e-01 0.000000e+00
1.138910e+00 4.216180e-01 0.000000e+00
1.080770e+00 3.759080e-01 0.000000e+00
1.138910e+00 4.216180e-01 0.000000e+00
1.099050e+00 3.512890e-01 0.000000e+00
1.159490e+00 3.934020e-01 0.000000e+00
1.099050e+00 3.512890e-01 0.000000e+00
1.159490e+00 3.934020e-01 0.000000e+00
1.115950e+00 3.255980e-01 0.000000e+00
1.178430e+00 3.641230e-01 0.000000e+00
1.115950e+00 3.255980e-01 0.000000e+00
1.178430e+00 3.641230e-01 0.000000e+00
1.131440e+00 2.989280e-01 0.000000e+00
1.195730e+00 3.338810e-01 0.000000e+00
1.131440e+00 2.989280e-01 0.000000e+00
1.195730e+00 3.338810e-01 0.000000e+00
1.145510e+00 2.714020e-01 0.000000e+00
1.211380e+00 3.027990e-01 0.000000e+00
1.145510e+00 2.714020e-01 0.000000e+00
1.211380e+00 3.027990e-01 0.000000e+00
1.158130e+00 2.431030e-01 0.000000e+00
1.225380e+00 2.709610e-01 0.000000e+00
1.158130e+00 2.431030e-01 0.000000e+00
1.225380e+00 2.709610e-01 0.000000e+00
1.169300e+00 2.141440e-01 0.000000e+00
1.237740e+00 2.384790e-01 0.000000e+00
1.169300e+00 2.141440e-01 0.000000e+00
1.237740e+00 2.384790e-01 0.000000e+00
1.179000e+00 1.845980e-01 0.000000e+00
1.248450e+00 2.054260e-01 0.000000e+00
1.179000e+00 1.845980e-01 0.000000e+00
1.248450e+00 2.054260e-01 0.000000e+00
1.187220e+00 1.545710e-01 0.000000e+00
1.257510e+00 1.719070e-01 0.000000e+00
1.187220e+00 1.545710e-01 0.000000e+00
1.257510e+00 1.719070e-01 0.000000e+00
1.193960e+00 1.241320e-01 0.000000e+00
1.264920e+00 1.379850e-01 0.000000e+00
1.193960e+00 1.241320e-01 0.000000e+00
1.264920e+00 1.379850e-01 0.000000e+00
1.199210e+00 9.338070e-02 0.000000e+00
1.270680e+00 1.037630e-01 0.000000e+00
1.199210e+00 9.338070e-02 0.000000e+00
1.270680e+00 1.037630e-01 0.000000e+00
1.202960e+00 6.238140e-02 0.000000e+00
1.274800e+00 6.929850e-02 0.000000e+00
1.202960e+00 6.238140e-02 0.000000e+00
1.274800e+00 6.929850e-02 0.000000e+00
1.205210e+00 3.123280e-02 0.000000e+00
1.277270e+00 3.469060e-02 0.000000e+00
1.205210e+00 3.123280e-02 0.000000e+00
1.277270e+00 3.469060e-02 0.000000e+00
1.205960e+00 -4.429740e-06 0.000000e+00
1.278100e+00 -4.694710e-06 0.000000e+00
</DataArray>
</Points>
<Cells>
<DataArray type="Int32" Name="connectivity" format="ascii">
0 1 3 2
4 5 7 6
8 9 11 10
12 13 15 14
16 17 19 18
20 21 23 22
24 25 27 26
28 29 31 30
32 33 35 34
36 37 39 38
40 41 43 42
44 45 47 46
48 49 51 50
52 53 55 54
56 57 59 58
60 61 63 62
64 65 67 66
68 69 71 70
72 73 75 74
76 77 79 78
80 81 83 82
84 85 87 86
88 89 91 90
92 93 95 94
96 97 99 98
100 101 103 102
104 105 107 106
108 109 111 110
112 113 115 114
116 117 119 118
120 121 123 122
124 125 127 126
128 129 131 130
132 133 135 134
136 137 139 138
140 141 143 142
144 145 147 146
148 149 151 150
152 153 155 154
156 157 159 158
160 161 163 162
164 165 167 166
168 169 171 170
172 173 175 174
176 177 179 178
180 181 183 182
184 185 187 186
188 189 191 190
</DataArray>
<DataArray type="Int32" Name="offsets" format="ascii">
4
8
12
16
20
24
28
32
36
40
44
48
52
56
60
64
68
72
76
80
84
88
92
96
100
104
108
112
116
120
124
128
132
136
140
144
148
152
156
160
164
168
172
176
180
184
188
192
</DataArray>
<DataArray type="UInt8" Name="types" format="ascii">
9
9
9
9
9
9
9
9
9
9
9
9
9
9
9
9
9
9
9
9
9
9
9
9
9
9
9
9
9
9
9
9
9
9
9
9
9
9
9
9
9
9
9
9
9
9
9
9
</DataArray>
</Cells>
<PointData>
<DataArray type="Float32" Name="V1" format="ascii">
1.969150e+00
-1.459370e-01
1.970940e+00
-1.441470e-01
1.971270e+00
-1.440540e-01
1.975490e+00
-1.398320e-01
1.976020e+00
-1.398570e-01
1.983390e+00
-1.324910e-01
1.983980e+00
-1.327300e-01
1.994440e+00
-1.222710e-01
1.995140e+00
-1.226930e-01
2.008680e+00
-1.091510e-01
2.009510e+00
-1.097430e-01
2.026140e+00
-9.311560e-02
2.027100e+00
-9.387520e-02
2.046830e+00
-7.414820e-02
2.047940e+00
-7.507810e-02
2.070790e+00
-5.223090e-02
2.072070e+00
-5.333800e-02
2.098060e+00
-2.734580e-02
2.099530e+00
-2.864350e-02
2.128700e+00
5.243980e-04
2.130380e+00
-9.879130e-04
2.162750e+00
3.138940e-02
2.164690e+00
2.962110e-02
2.200310e+00
6.523960e-02
2.202590e+00
6.314640e-02
2.241470e+00
1.020220e-01
2.244200e+00
9.950680e-02
2.286300e+00
1.416110e-01
2.289600e+00
1.385810e-01
2.334800e+00
1.837860e-01
2.338630e+00
1.802830e-01
2.386620e+00
2.282650e-01
2.390380e+00
2.248680e-01
2.440510e+00
2.749940e-01
2.441960e+00
2.738060e-01
2.493250e+00
3.250960e-01
2.486050e+00
3.319030e-01
2.537580e+00
3.834370e-01
2.506690e+00
4.118520e-01
2.559500e+00
4.646640e-01
2.473640e+00
5.426450e-01
2.536600e+00
6.056090e-01
2.340500e+00
7.820440e-01
2.444470e+00
8.860200e-01
2.060370e+00
1.245060e+00
2.251980e+00
1.436670e+00
1.840770e+00
1.845620e+00
1.952790e+00
1.957640e+00
1.747320e+00
2.131750e+00
1.823590e+00
2.208020e+00
1.713610e+00
2.308100e+00
1.789430e+00
2.383910e+00
1.735240e+00
2.433860e+00
1.810970e+00
2.509590e+00
1.791750e+00
2.527360e+00
1.865700e+00
2.601310e+00
1.867900e+00
2.599300e+00
1.938920e+00
2.670320e+00
1.953630e+00
2.656780e+00
2.021020e+00
2.724170e+00
2.042450e+00
2.704440e+00
2.105820e+00
2.767810e+00
2.130270e+00
2.745300e+00
2.189440e+00
2.804470e+00
2.214600e+00
2.781280e+00
2.269460e+00
2.836150e+00
2.293970e+00
2.813580e+00
2.344590e+00
2.864210e+00
2.367670e+00
2.842970e+00
2.414090e+00
2.889390e+00
2.435320e+00
2.869840e+00
2.477680e+00
2.912200e+00
2.496920e+00
2.894500e+00
2.535300e+00
2.932880e+00
2.552500e+00
2.917050e+00
2.587070e+00
2.951610e+00
2.602300e+00
2.937610e+00
2.633150e+00
2.968470e+00
2.646470e+00
2.956200e+00
2.673750e+00
2.983480e+00
2.685290e+00
2.972870e+00
2.709080e+00
2.996660e+00
2.718920e+00
2.987600e+00
2.739350e+00
3.008030e+00
2.747600e+00
3.000440e+00
2.764730e+00
3.017570e+00
2.771480e+00
3.011360e+00
2.785400e+00
3.025280e+00
2.790710e+00
3.020390e+00
2.801470e+00
3.031150e+00
2.805400e+00
3.027530e+00
2.813050e+00
3.035190e+00
2.815650e+00
3.032800e+00
2.820230e+00
3.037370e+00
2.821520e+00
3.036190e+00
2.823050e+00
3.037710e+00
</DataArray>
<DataArray type="Float32" Name="V2" format="ascii">
5.356100e-01
6.200000e-01
5.364440e-01
6.207760e-01
5.364440e-01
6.207760e-01
5.389460e-01
6.231000e-01
5.389460e-01
6.231000e-01
5.431070e-01
6.269670e-01
5.431070e-01
6.269670e-01
5.489170e-01
6.323670e-01
5.489170e-01
6.323670e-01
5.563610e-01
6.392830e-01
5.563610e-01
6.392830e-01
5.654170e-01
6.476990e-01
5.654170e-01
6.476990e-01
5.760620e-01
6.575900e-01
5.760620e-01
6.575900e-01
5.882680e-01
6.689300e-01
5.882680e-01
6.689300e-01
6.020000e-01
6.816880e-01
6.020000e-01
6.816880e-01
6.172220e-01
6.958290e-01
6.172220e-01
6.958290e-01
6.338920e-01
7.113130e-01
6.338920e-01
7.113130e-01
6.519660e-01
7.280990e-01
6.519660e-01
7.280990e-01
6.713940e-01
7.461390e-01
6.713940e-01
7.461390e-01
6.921240e-01
7.653850e-01
6.921240e-01
7.653850e-01
7.141000e-01
7.857820e-01
7.141000e-01
7.857820e-01
7.372670e-01
8.072770e-01
7.372670e-01
8.072770e-01
7.615610e-01
8.298170e-01
7.615610e-01
8.298170e-01
7.869130e-01
8.533550e-01
7.869130e-01
8.533550e-01
8.132290e-01
8.778610e-01
8.132290e-01
8.778610e-01
8.403540e-01
9.033310e-01
8.403540e-01
9.033310e-01
8.680040e-01
9.297920e-01
8.680040e-01
9.297920e-01
8.956650e-01
9.572580e-01
8.956650e-01
9.572580e-01
9.227770e-01
9.854480e-01
9.227770e-01
9.854480e-01
9.487240e-01
1.012200e+00
9.487240e-01
1.012200e+00
9.731050e-01
1.037630e+00
9.731050e-01
1.037630e+00
9.958930e-01
1.061660e+00
9.958930e-01
1.061660e+00
1.017150e+00
1.084160e+00
1.017150e+00
1.084160e+00
1.036930e+00
1.105060e+00
1.036930e+00
1.105060e+00
1.055310e+00
1.124400e+00
1.055310e+00
1.124400e+00
1.072350e+00
1.142220e+00
1.072350e+00
1.142220e+00
1.088110e+00
1.158600e+00
1.088110e+00
1.158600e+00
1.102650e+00
1.173630e+00
1.102650e+00
1.173630e+00
1.116040e+00
1.187380e+00
1.116040e+00
1.187380e+00
1.128330e+00
1.199950e+00
1.128330e+00
1.199950e+00
1.139580e+00
1.211390e+00
1.139580e+00
1.211390e+00
1.149820e+00
1.221780e+00
1.149820e+00
1.221780e+00
1.159110e+00
1.231170e+00
1.159110e+00
1.231170e+00
1.167480e+00
1.239600e+00
1.167480e+00
1.239600e+00
1.174970e+00
1.247120e+00
1.174970e+00
1.247120e+00
1.181590e+00
1.253760e+00
1.181590e+00
1.253760e+00
1.187380e+00
1.259560e+00
1.187380e+00
1.259560e+00
1.192360e+00
1.264530e+00
1.192360e+00
1.264530e+00
1.196550e+00
1.268710e+00
1.196550e+00
1.268710e+00
1.199950e+00
1.272110e+00
1.199950e+00
1.272110e+00
1.202590e+00
1.274740e+00
1.202590e+00
1.274740e+00
1.204460e+00
1.276610e+00
1.204460e+00
1.276610e+00
1.205590e+00
1.277720e+00
1.205590e+00
1.277720e+00
1.205960e+00
1.278100e+00
</DataArray>
<DataArray type="Float32" Name="V3" format="ascii">
0.000000e+00
0.000000e+00
1.633370e-02
1.354450e-02
1.633370e-02
1.354450e-02
3.257360e-02
2.700060e-02
3.257360e-02
2.700060e-02
4.862580e-02
4.028040e-02
4.862580e-02
4.028040e-02
6.439730e-02
5.329610e-02
6.439730e-02
5.329610e-02
7.979510e-02
6.596040e-02
7.979510e-02
6.596040e-02
9.472740e-02
7.818690e-02
9.472740e-02
7.818690e-02
1.091030e-01
8.988970e-02
1.091030e-01
8.988970e-02
1.228330e-01
1.009850e-01
1.228330e-01
1.009850e-01
1.358280e-01
1.113900e-01
1.358280e-01
1.113900e-01
1.480020e-01
1.210210e-01
1.480020e-01
1.210210e-01
1.592700e-01
1.298010e-01
1.592700e-01
1.298010e-01
1.695490e-01
1.376480e-01
1.695490e-01
1.376480e-01
1.787590e-01
1.444890e-01
1.787590e-01
1.444890e-01
1.868200e-01
1.502470e-01
1.868200e-01
1.502470e-01
1.936550e-01
1.548550e-01
1.936550e-01
1.548550e-01
1.991900e-01
1.582450e-01
1.991900e-01
1.582450e-01
2.033440e-01
1.603620e-01
2.033440e-01
1.603620e-01
2.060300e-01
1.611640e-01
2.060300e-01
1.611640e-01
2.071450e-01
1.606340e-01
2.071450e-01
1.606340e-01
2.065590e-01
1.587830e-01
2.065590e-01
1.587830e-01
2.041320e-01
1.556430e-01
2.041320e-01
1.556430e-01
1.998070e-01
1.512180e-01
1.998070e-01
1.512180e-01
1.938690e-01
1.454020e-01
1.938690e-01
1.454020e-01
1.869500e-01
1.397720e-01
1.869500e-01
1.397720e-01
1.793800e-01
1.346460e-01
1.793800e-01
1.346460e-01
1.716400e-01
1.298390e-01
1.716400e-01
1.298390e-01
1.639060e-01
1.252380e-01
1.639060e-01
1.252380e-01
1.562380e-01
1.207290e-01
1.562380e-01
1.207290e-01
1.486480e-01
1.162130e-01
1.486480e-01
1.162130e-01
1.411220e-01
1.116140e-01
1.411220e-01
1.116140e-01
1.336390e-01
1.068770e-01
1.336390e-01
1.068770e-01
1.261710e-01
1.019630e-01
1.261710e-01
1.019630e-01
1.186970e-01
9.685310e-02
1.186970e-01
9.685310e-02
1.111920e-01
9.153230e-02
1.111920e-01
9.153230e-02
1.036440e-01
8.600120e-02
1.036440e-01
8.600120e-02
9.603670e-02
8.026010e-02
9.603670e-02
8.026010e-02
8.836590e-02
7.432060e-02
8.836590e-02
7.432060e-02
8.062240e-02
6.819040e-02
8.062240e-02
6.819040e-02
7.280960e-02
6.188670e-02
7.280960e-02
6.188670e-02
6.492360e-02
5.542100e-02
6.492360e-02
5.542100e-02
5.697280e-02
4.881340e-02
5.697280e-02
4.881340e-02
4.895740e-02
4.207690e-02
4.895740e-02
4.207690e-02
4.088870e-02
3.523320e-02
4.088870e-02
3.523320e-02
3.276970e-02
2.829590e-02
3.276970e-02
2.829590e-02
2.461380e-02
2.128730e-02
2.461380e-02
2.128730e-02
1.642530e-02
1.422150e-02
1.642530e-02
1.422150e-02
8.219010e-03
7.121030e-03
8.219010e-03
7.121030e-03
0.000000e+00
0.000000e+00
</DataArray>
<DataArray type="Float32" Name="V4" format="ascii">
9.000000e-01
1.000000e+00
9.000000e-01
1.000000e+00
9.000000e-01
1.000000e+00
9.000000e-01
1.000000e+00
9.000000e-01
1.000000e+00
9.000000e-01
1.000000e+00
9.000000e-01
1.000000e+00
9.000000e-01
1.000000e+00
9.000000e-01
1.000000e+00
9.000000e-01
1.000000e+00
9.000000e-01
1.000000e+00
9.000000e-01
1.000000e+00
9.000000e-01
1.000000e+00
9.000000e-01
1.000000e+00
9.000000e-01
1.000000e+00
9.000000e-01
1.000000e+00
9.000000e-01
1.000000e+00
9.000000e-01
1.000000e+00
9.000000e-01
1.000000e+00
9.000000e-01
1.000000e+00
9.000000e-01
1.000000e+00
9.000000e-01
1.000000e+00
9.000000e-01
1.000000e+00
9.000000e-01
1.000000e+00
9.000000e-01
1.000000e+00
9.000000e-01
1.000000e+00
9.000000e-01
1.000000e+00
9.000000e-01
1.000000e+00
9.000000e-01
1.000000e+00
9.000000e-01
1.000000e+00
9.000000e-01
1.000000e+00
9.000000e-01
1.000000e+00
9.000000e-01
1.000000e+00
9.000000e-01
1.000000e+00
9.000000e-01
1.000000e+00
9.000000e-01
1.000000e+00
9.000000e-01
1.000000e+00
9.000000e-01
1.000000e+00
9.000000e-01
1.000000e+00
9.000000e-01
1.000000e+00
9.000000e-01
1.000000e+00
9.000000e-01
1.000000e+00
9.000000e-01
1.000000e+00
9.000000e-01
1.000000e+00
9.000000e-01
1.000000e+00
9.000000e-01
1.000000e+00
9.000000e-01
1.000000e+00
9.000000e-01
1.000000e+00
9.000000e-01
1.000000e+00
9.000000e-01
1.000000e+00
9.000000e-01
1.000000e+00
9.000000e-01
1.000000e+00
9.000000e-01
1.000000e+00
9.000000e-01
1.000000e+00
9.000000e-01
1.000000e+00
9.000000e-01
1.000000e+00
9.000000e-01
1.000000e+00
9.000000e-01
1.000000e+00
9.000000e-01
1.000000e+00
9.000000e-01
1.000000e+00
9.000000e-01
1.000000e+00
9.000000e-01
1.000000e+00
9.000000e-01
1.000000e+00
9.000000e-01
1.000000e+00
9.000000e-01
1.000000e+00
9.000000e-01
1.000000e+00
9.000000e-01
1.000000e+00
9.000000e-01
1.000000e+00
9.000000e-01
1.000000e+00
9.000000e-01
1.000000e+00
9.000000e-01
1.000000e+00
9.000000e-01
1.000000e+00
9.000000e-01
1.000000e+00
9.000000e-01
1.000000e+00
9.000000e-01
1.000000e+00
9.000000e-01
1.000000e+00
9.000000e-01
1.000000e+00
9.000000e-01
1.000000e+00
9.000000e-01
1.000000e+00
9.000000e-01
1.000000e+00
9.000000e-01
1.000000e+00
9.000000e-01
1.000000e+00
9.000000e-01
1.000000e+00
9.000000e-01
1.000000e+00
9.000000e-01
1.000000e+00
9.000000e-01
1.000000e+00
9.000000e-01
1.000000e+00
9.000000e-01
1.000000e+00
9.000000e-01
1.000000e+00
9.000000e-01
1.000000e+00
9.000000e-01
1.000000e+00
9.000000e-01
1.000000e+00
9.000000e-01
1.000000e+00
9.000000e-01
1.000000e+00
9.000000e-01
1.000000e+00
9.000000e-01
1.000000e+00
</DataArray>
<DataArray type="Float32" Name="V5" format="ascii">
0.000000e+00
0.000000e+00
3.272490e-02
3.272490e-02
3.272490e-02
3.272490e-02
6.544980e-02
6.544980e-02
6.544980e-02
6.544980e-02
9.817480e-02
9.817480e-02
9.817480e-02
9.817480e-02
1.309000e-01
1.309000e-01
1.309000e-01
1.309000e-01
1.636250e-01
1.636250e-01
1.636250e-01
1.636250e-01
1.963500e-01
1.963500e-01
1.963500e-01
1.963500e-01
2.290740e-01
2.290740e-01
2.290740e-01
2.290740e-01
2.617990e-01
2.617990e-01
2.617990e-01
2.617990e-01
2.945240e-01
2.945240e-01
2.945240e-01
2.945240e-01
3.272490e-01
3.272490e-01
3.272490e-01
3.272490e-01
3.599740e-01
3.599740e-01
3.599740e-01
3.599740e-01
3.926990e-01
3.926990e-01
3.926990e-01
3.926990e-01
4.254240e-01
4.254240e-01
4.254240e-01
4.254240e-01
4.581490e-01
4.581490e-01
4.581490e-01
4.581490e-01
4.908740e-01
4.908740e-01
4.908740e-01
4.908740e-01
5.235990e-01
5.235990e-01
5.235990e-01
5.235990e-01
5.563240e-01
5.563240e-01
5.563240e-01
5.563240e-01
5.890490e-01
5.890490e-01
5.890490e-01
5.890490e-01
6.217740e-01
6.217740e-01
6.217740e-01
6.217740e-01
6.544980e-01
6.544980e-01
6.544980e-01
6.544980e-01
6.872230e-01
6.872230e-01
6.872230e-01
6.872230e-01
7.199480e-01
7.199480e-01
7.199480e-01
7.199480e-01
7.526730e-01
7.526730e-01
7.526730e-01
7.526730e-01
7.853980e-01
7.853980e-01
7.853980e-01
7.853980e-01
8.181230e-01
8.181230e-01
8.181230e-01
8.181230e-01
8.508480e-01
8.508480e-01
8.508480e-01
8.508480e-01
8.835730e-01
8.835730e-01
8.835730e-01
8.835730e-01
9.162980e-01
9.162980e-01
9.162980e-01
9.162980e-01
9.490230e-01
9.490230e-01
9.490230e-01
9.490230e-01
9.817480e-01
9.817480e-01
9.817480e-01
9.817480e-01
1.014470e+00
1.014470e+00
1.014470e+00
1.014470e+00
1.047200e+00
1.047200e+00
1.047200e+00
1.047200e+00
1.079920e+00
1.079920e+00
1.079920e+00
1.079920e+00
1.112650e+00
1.112650e+00
1.112650e+00
1.112650e+00
1.145370e+00
1.145370e+00
1.145370e+00
1.145370e+00
1.178100e+00
1.178100e+00
1.178100e+00
1.178100e+00
1.210820e+00
1.210820e+00
1.210820e+00
1.210820e+00
1.243550e+00
1.243550e+00
1.243550e+00
1.243550e+00
1.276270e+00
1.276270e+00
1.276270e+00
1.276270e+00
1.309000e+00
1.309000e+00
1.309000e+00
1.309000e+00
1.341720e+00
1.341720e+00
1.341720e+00
1.341720e+00
1.374450e+00
1.374450e+00
1.374450e+00
1.374450e+00
1.407170e+00
1.407170e+00
1.407170e+00
1.407170e+00
1.439900e+00
1.439900e+00
1.439900e+00
1.439900e+00
1.472620e+00
1.472620e+00
1.472620e+00
1.472620e+00
1.505350e+00
1.505350e+00
1.505350e+00
1.505350e+00
1.538070e+00
1.538070e+00
1.538070e+00
1.538070e+00
1.570800e+00
1.570800e+00
</DataArray>
</PointData>
</Piece></UnstructuredGrid>
</VTKFile>
