<?xml version="1.0"?>
<VTKFile type="UnstructuredGrid" version="0.1" byte_order="LittleEndian" compressor="vtkZLibDataCompressor">
<UnstructuredGrid>
<Piece NumberOfPoints="192" NumberOfCells="48">
<Points>
<DataArray type="Float32" NumberOfComponents="3" format="ascii">
0.000000e+00 3.522280e-01 0.000000e+00
0.000000e+00 3.837500e-01 0.000000e+00
5.540090e-02 3.522330e-01 0.000000e+00
5.539580e-02 3.837500e-01 0.000000e+00
5.540090e-02 3.522330e-01 0.000000e+00
5.539580e-02 3.837500e-01 0.000000e+00
1.107990e-01 3.522460e-01 0.000000e+00
1.107890e-01 3.837500e-01 0.000000e+00
1.107990e-01 3.522460e-01 0.000000e+00
1.107890e-01 3.837500e-01 0.000000e+00
1.661920e-01 3.522690e-01 0.000000e+00
1.661760e-01 3.837500e-01 0.000000e+00
1.661920e-01 3.522690e-01 0.000000e+00
1.661760e-01 3.837500e-01 0.000000e+00
2.215760e-01 3.523010e-01 0.000000e+00
2.215550e-01 3.837500e-01 0.000000e+00
2.215760e-01 3.523010e-01 0.000000e+00
2.215550e-01 3.837500e-01 0.000000e+00
2.769480e-01 3.523410e-01 0.000000e+00
2.769220e-01 3.837500e-01 0.000000e+00
2.769480e-01 3.523410e-01 0.000000e+00
2.769220e-01 3.837500e-01 0.000000e+00
3.323050e-01 3.523910e-01 0.000000e+00
3.322740e-01 3.837500e-01 0.000000e+00
3.323050e-01 3.523910e-01 0.000000e+00
3.322740e-01 3.837500e-01 0.000000e+00
3.876420e-01 3.524490e-01 0.000000e+00
3.876070e-01 3.837500e-01 0.000000e+00
3.876420e-01 3.524490e-01 0.000000e+00
3.876070e-01 3.837500e-01 0.000000e+00
4.429600e-01 3.525160e-01 0.000000e+00
4.429200e-01 3.837500e-01 0.000000e+00
4.429600e-01 3.525160e-01 0.000000e+00
4.429200e-01 3.837500e-01 0.000000e+00
4.982540e-01 3.525910e-01 0.000000e+00
4.982080e-01 3.837500e-01 0.000000e+00
4.982540e-01 3.525910e-01 0.000000e+00
4.982080e-01 3.837500e-01 0.000000e+00
5.535190e-01 3.526750e-01 0.000000e+00
5.534690e-01 3.837500e-01 0.000000e+00
5.535190e-01 3.526750e-01 0.000000e+00
5.534690e-01 3.837500e-01 0.000000e+00
6.087530e-01 3.527680e-01 0.000000e+00
6.086980e-01 3.837500e-01 0.000000e+00
6.087530e-01 3.527680e-01 0.000000e+00
6.086980e-01 3.837500e-01 0.000000e+00
6.639520e-01 3.528690e-01 0.000000e+00
6.638920e-01 3.837500e-01 0.000000e+00
6.639520e-01 3.528690e-01 0.000000e+00
6.638920e-01 3.837500e-01 0.000000e+00
7.191110e-01 3.529780e-01 0.000000e+00
7.190470e-01 3.837500e-01 0.000000e+00
7.191110e-01 3.529780e-01 0.000000e+00
7.190470e-01 3.837500e-01 0.000000e+00
7.742280e-01 3.530940e-01 0.000000e+00
7.741590e-01 3.837500e-01 0.000000e+00
7.742280e-01 3.530940e-01 0.000000e+00
7.741590e-01 3.837500e-01 0.000000e+00
8.292970e-01 3.532190e-01 0.000000e+00
8.292230e-01 3.837500e-01 0.000000e+00
8.292970e-01 3.532190e-01 0.000000e+00
8.292230e-01 3.837500e-01 0.000000e+00
8.843130e-01 3.533510e-01 0.000000e+00
8.842350e-01 3.837500e-01 0.000000e+00
8.843130e-01 3.533510e-01 0.000000e+00
8.842350e-01 3.837500e-01 0.000000e+00
9.392740e-01 3.534910e-01 0.000000e+00
9.391910e-01 3.837500e-01 0.000000e+00
9.392740e-01 3.534910e-01 0.000000e+00
9.391910e-01 3.837500e-01 0.000000e+00
9.941720e-01 3.536380e-01 0.000000e+00
9.940850e-01 3.837500e-01 0.000000e+00
9.941720e-01 3.536380e-01 0.000000e+00
9.940850e-01 3.837500e-01 0.000000e+00
1.049000e+00 3.537920e-01 0.000000e+00
1.048910e+00 3.837500e-01 0.000000e+00
1.049000e+00 3.537920e-01 0.000000e+00
1.048910e+00 3.837500e-01 0.000000e+00
1.103760e+00 3.539520e-01 0.000000e+00
1.103670e+00 3.837500e-01 0.000000e+00
1.103760e+00 3.539520e-01 0.000000e+00
1.103670e+00 3.837500e-01 0.000000e+00
1.158440e+00 3.541190e-01 0.000000e+00
1.158340e+00 3.837500e-01 0.000000e+00
1.158440e+00 3.541190e-01 0.000000e+00
1.158340e+00 3.837500e-01 0.000000e+00
1.213040e+00 3.542930e-01 0.000000e+00
1.212940e+00 3.837500e-01 0.000000e+00
1.213040e+00 3.542930e-01 0.000000e+00
1.212940e+00 3.837500e-01 0.000000e+00
1.267550e+00 3.544730e-01 0.000000e+00
1.267440e+00 3.837500e-01 0.000000e+00
1.267550e+00 3.544730e-01 0.000000e+00
1.267440e+00 3.837500e-01 0.000000e+00
1.321950e+00 3.546580e-01 0.000000e+00
1.321840e+00 3.837500e-01 0.000000e+00
1.321950e+00 3.546580e-01 0.000000e+00
1.321840e+00 3.837500e-01 0.000000e+00
1.376260e+00 3.548500e-01 0.000000e+00
1.376140e+00 3.837500e-01 0.000000e+00
1.376260e+00 3.548500e-01 0.000000e+00
1.376140e+00 3.837500e-01 0.000000e+00
1.430450e+00 3.550460e-01 0.000000e+00
1.430330e+00 3.837500e-01 0.000000e+00
1.430450e+00 3.550460e-01 0.000000e+00
1.430330e+00 3.837500e-01 0.000000e+00
1.484520e+00 3.552480e-01 0.000000e+00
1.484400e+00 3.837500e-01 0.000000e+00
1.484520e+00 3.552480e-01 0.000000e+00
1.484400e+00 3.837500e-01 0.000000e+00
1.538470e+00 3.554540e-01 0.000000e+00
1.538350e+00 3.837500e-01 0.000000e+00
1.538470e+00 3.554540e-01 0.000000e+00
1.538350e+00 3.837500e-01 0.000000e+00
1.592280e+00 3.556660e-01 0.000000e+00
1.592150e+00 3.837500e-01 0.000000e+00
1.592280e+00 3.556660e-01 0.000000e+00
1.592150e+00 3.837500e-01 0.000000e+00
1.645940e+00 3.558810e-01 0.000000e+00
1.645810e+00 3.837500e-01 0.000000e+00
1.645940e+00 3.558810e-01 0.000000e+00
1.645810e+00 3.837500e-01 0.000000e+00
1.699440e+00 3.561010e-01 0.000000e+00
1.699320e+00 3.837500e-01 0.000000e+00
1.699440e+00 3.561010e-01 0.000000e+00
1.699320e+00 3.837500e-01 0.000000e+00
1.752780e+00 3.563250e-01 0.000000e+00
1.752690e+00 3.837500e-01 0.000000e+00
1.752780e+00 3.563250e-01 0.000000e+00
1.752690e+00 3.837500e-01 0.000000e+00
1.805910e+00 3.565520e-01 0.000000e+00
1.805890e+00 3.837500e-01 0.000000e+00
1.805910e+00 3.565520e-01 0.000000e+00
1.805890e+00 3.837500e-01 0.000000e+00
1.858800e+00 3.567850e-01 0.000000e+00
1.859010e+00 3.837500e-01 0.000000e+00
1.858800e+00 3.567850e-01 0.000000e+00
1.859010e+00 3.837500e-01 0.000000e+00
1.911280e+00 3.570220e-01 0.000000e+00
1.912140e+00 3.837500e-01 0.000000e+00
1.911280e+00 3.570220e-01 0.000000e+00
1.912140e+00 3.837500e-01 0.000000e+00
1.963040e+00 3.572100e-01 0.000000e+00
1.965540e+00 3.837500e-01 0.000000e+00
1.963040e+00 3.572100e-01 0.000000e+00
1.965540e+00 3.837500e-01 0.000000e+00
2.013470e+00 3.561440e-01 0.000000e+00
2.018190e+00 3.831210e-01 0.000000e+00
2.013470e+00 3.561440e-01 0.000000e+00
2.018190e+00 3.831210e-01 0.000000e+00
2.062100e+00 3.495230e-01 0.000000e+00
2.068930e+00 3.757280e-01 0.000000e+00
2.062100e+00 3.495230e-01 0.000000e+00
2.068930e+00 3.757280e-01 0.000000e+00
2.108390e+00 3.357720e-01 0.000000e+00
2.118280e+00 3.607020e-01 0.000000e+00
2.108390e+00 3.357720e-01 0.000000e+00
2.118280e+00 3.607020e-01 0.000000e+00
2.151850e+00 3.154410e-01 0.000000e+00
2.164920e+00 3.385970e-01 0.000000e+00
2.151850e+00 3.154410e-01 0.000000e+00
2.164920e+00 3.385970e-01 0.000000e+00
2.191790e+00 2.891760e-01 0.000000e+00
2.207800e+00 3.101420e-01 0.000000e+00
2.191790e+00 2.891760e-01 0.000000e+00
2.207800e+00 3.101420e-01 0.000000e+00
2.227590e+00 2.576540e-01 0.000000e+00
2.246190e+00 2.761040e-01 0.000000e+00
2.227590e+00 2.576540e-01 0.000000e+00
2.246190e+00 2.761040e-01 0.000000e+00
2.258710e+00 2.216220e-01 0.000000e+00
2.279490e+00 2.373130e-01 0.000000e+00
2.258710e+00 2.216220e-01 0.000000e+00
2.279490e+00 2.373130e-01 0.000000e+00
2.284720e+00 1.818090e-01 0.000000e+00
2.307280e+00 1.945540e-01 0.000000e+00
2.284720e+00 1.818090e-01 0.000000e+00
2.307280e+00 1.945540e-01 0.000000e+00
2.305280e+00 1.389940e-01 0.000000e+00
2.329210e+00 1.486600e-01 0.000000e+00
2.305280e+00 1.389940e-01 0.000000e+00
2.329210e+00 1.486600e-01 0.000000e+00
2.320150e+00 9.390780e-02 0.000000e+00
2.345050e+00 1.004010e-01 0.000000e+00
2.320150e+00 9.390780e-02 0.000000e+00
2.345050e+00 1.004010e-01 0.000000e+00
2.329130e+00 4.733220e-02 0.000000e+00
2.354610e+00 5.059340e-02 0.000000e+00
2.329130e+00 4.733220e-02 0.000000e+00
2.354610e+00 5.059340e-02 0.000000e+00
2.332140e+00 -8.566420e-06 0.000000e+00
2.357810e+00 -8.660730e-06 0.000000e+00
</DataArray>
</Points>
<Cells>
<DataArray type="Int32" Name="connectivity" format="ascii">
0 1 3 2
4 5 7 6
8 9 11 10
12 13 15 14
16 17 19 18
20 21 23 22
24 25 27 26
28 29 31 30
32 33 35 34
36 37 39 38
40 41 43 42
44 45 47 46
48 49 51 50
52 53 55 54
56 57 59 58
60 61 63 62
64 65 67 66
68 69 71 70
72 73 75 74
76 77 79 78
80 81 83 82
84 85 87 86
88 89 91 90
92 93 95 94
96 97 99 98
100 101 103 102
104 105 107 106
108 109 111 110
112 113 115 114
116 117 119 118
120 121 123 122
124 125 127 126
128 129 131 130
132 133 135 134
136 137 139 138
140 141 143 142
144 145 147 146
148 149 151 150
152 153 155 154
156 157 159 158
160 161 163 162
164 165 167 166
168 169 171 170
172 173 175 174
176 177 179 178
180 181 183 182
184 185 187 186
188 189 191 190
</DataArray>
<DataArray type="Int32" Name="offsets" format="ascii">
4
8
12
16
20
24
28
32
36
40
44
48
52
56
60
64
68
72
76
80
84
88
92
96
100
104
108
112
116
120
124
128
132
136
140
144
148
152
156
160
164
168
172
176
180
184
188
192
</DataArray>
<DataArray type="UInt8" Name="types" format="ascii">
9
9
9
9
9
9
9
9
9
9
9
9
9
9
9
9
9
9
9
9
9
9
9
9
9
9
9
9
9
9
9
9
9
9
9
9
9
9
9
9
9
9
9
9
9
9
9
9
</DataArray>
</Cells>
<PointData>
<DataArray type="Float32" Name="V1" format="ascii">
2.051650e+01
1.288120e+01
2.052270e+01
1.288740e+01
2.052520e+01
1.288590e+01
2.053990e+01
1.290060e+01
2.054460e+01
1.289760e+01
2.056980e+01
1.292280e+01
2.057650e+01
1.291780e+01
2.061210e+01
1.295340e+01
2.062070e+01
1.294650e+01
2.066670e+01
1.299250e+01
2.067750e+01
1.298370e+01
2.073390e+01
1.304010e+01
2.074670e+01
1.302960e+01
2.081360e+01
1.309640e+01
2.082860e+01
1.308400e+01
2.090600e+01
1.316140e+01
2.092320e+01
1.314710e+01
2.101120e+01
1.323520e+01
2.103050e+01
1.321900e+01
2.112930e+01
1.331780e+01
2.115080e+01
1.329970e+01
2.126040e+01
1.340930e+01
2.128410e+01
1.338930e+01
2.140460e+01
1.350990e+01
2.143060e+01
1.348800e+01
2.156220e+01
1.361960e+01
2.159050e+01
1.359570e+01
2.173330e+01
1.373850e+01
2.176400e+01
1.371270e+01
2.191820e+01
1.386690e+01
2.195120e+01
1.383910e+01
2.211700e+01
1.400480e+01
2.215240e+01
1.397490e+01
2.232990e+01
1.415250e+01
2.236770e+01
1.412050e+01
2.255720e+01
1.431000e+01
2.259760e+01
1.427590e+01
2.279920e+01
1.447750e+01
2.284210e+01
1.444130e+01
2.305610e+01
1.465530e+01
2.310160e+01
1.461690e+01
2.332830e+01
1.484350e+01
2.337640e+01
1.480290e+01
2.361600e+01
1.504240e+01
2.366690e+01
1.499950e+01
2.391960e+01
1.525220e+01
2.397330e+01
1.520690e+01
2.423950e+01
1.547320e+01
2.429600e+01
1.542550e+01
2.457600e+01
1.570550e+01
2.463540e+01
1.565540e+01
2.492950e+01
1.594960e+01
2.499180e+01
1.589700e+01
2.530040e+01
1.620570e+01
2.536570e+01
1.615060e+01
2.568920e+01
1.647410e+01
2.575740e+01
1.641660e+01
2.609620e+01
1.675530e+01
2.616700e+01
1.669560e+01
2.652150e+01
1.705010e+01
2.659400e+01
1.698910e+01
2.696460e+01
1.735970e+01
2.703550e+01
1.730010e+01
2.742310e+01
1.768770e+01
2.748310e+01
1.763730e+01
2.788840e+01
1.804260e+01
2.791020e+01
1.802500e+01
2.833570e+01
1.845050e+01
2.824000e+01
1.853290e+01
2.869100e+01
1.898380e+01
2.826370e+01
1.935150e+01
2.874480e+01
1.983260e+01
2.765720e+01
2.079060e+01
2.800770e+01
2.114100e+01
2.678590e+01
2.211420e+01
2.726720e+01
2.259540e+01
2.676210e+01
2.302740e+01
2.723760e+01
2.350290e+01
2.710820e+01
2.361160e+01
2.755940e+01
2.406290e+01
2.756670e+01
2.405660e+01
2.798600e+01
2.447590e+01
2.803830e+01
2.443170e+01
2.841790e+01
2.481130e+01
2.848070e+01
2.475860e+01
2.881360e+01
2.509150e+01
2.887310e+01
2.504140e+01
2.915320e+01
2.532160e+01
2.920400e+01
2.527900e+01
2.942660e+01
2.550160e+01
2.946600e+01
2.546850e+01
2.962750e+01
2.563000e+01
2.965430e+01
2.560750e+01
2.975220e+01
2.570540e+01
2.976580e+01
2.569410e+01
2.979850e+01
2.572680e+01
</DataArray>
<DataArray type="Float32" Name="V2" format="ascii">
3.522280e-01
3.837500e-01
3.538570e-01
3.853570e-01
3.538570e-01
3.853570e-01
3.587390e-01
3.901740e-01
3.587390e-01
3.901740e-01
3.668620e-01
3.981900e-01
3.668620e-01
3.981900e-01
3.782080e-01
4.093860e-01
3.782080e-01
4.093860e-01
3.927490e-01
4.237340e-01
3.927490e-01
4.237340e-01
4.104490e-01
4.412000e-01
4.104490e-01
4.412000e-01
4.312660e-01
4.617410e-01
4.312660e-01
4.617410e-01
4.551500e-01
4.853100e-01
4.551500e-01
4.853100e-01
4.820440e-01
5.118480e-01
4.820440e-01
5.118480e-01
5.118820e-01
5.412910e-01
5.118820e-01
5.412910e-01
5.445910e-01
5.735680e-01
5.445910e-01
5.735680e-01
5.800920e-01
6.085990e-01
5.800920e-01
6.085990e-01
6.182970e-01
6.463000e-01
6.182970e-01
6.463000e-01
6.591130e-01
6.865770e-01
6.591130e-01
6.865770e-01
7.024390e-01
7.293300e-01
7.024390e-01
7.293300e-01
7.481680e-01
7.744550e-01
7.481680e-01
7.744550e-01
7.961850e-01
8.218380e-01
7.961850e-01
8.218380e-01
8.463720e-01
8.713610e-01
8.463720e-01
8.713610e-01
8.986000e-01
9.228980e-01
8.986000e-01
9.228980e-01
9.527360e-01
9.763180e-01
9.527360e-01
9.763180e-01
1.008650e+00
1.031490e+00
1.008650e+00
1.031490e+00
1.066180e+00
1.088260e+00
1.066180e+00
1.088260e+00
1.125200e+00
1.146500e+00
1.125200e+00
1.146500e+00
1.185540e+00
1.206040e+00
1.185540e+00
1.206040e+00
1.247050e+00
1.266730e+00
1.247050e+00
1.266730e+00
1.309570e+00
1.328410e+00
1.309570e+00
1.328410e+00
1.372920e+00
1.390910e+00
1.372920e+00
1.390910e+00
1.436940e+00
1.454060e+00
1.436940e+00
1.454060e+00
1.501450e+00
1.517700e+00
1.501450e+00
1.517700e+00
1.566270e+00
1.581650e+00
1.566270e+00
1.581650e+00
1.631210e+00
1.645710e+00
1.631210e+00
1.645710e+00
1.696120e+00
1.709750e+00
1.696120e+00
1.709750e+00
1.760750e+00
1.773550e+00
1.760750e+00
1.773550e+00
1.824910e+00
1.837030e+00
1.824910e+00
1.837030e+00
1.888260e+00
1.900070e+00
1.888260e+00
1.900070e+00
1.950310e+00
1.962780e+00
1.950310e+00
1.962780e+00
2.009870e+00
2.023790e+00
2.009870e+00
2.023790e+00
2.065020e+00
2.079910e+00
2.065020e+00
2.079910e+00
2.115080e+00
2.131780e+00
2.115080e+00
2.131780e+00
2.160170e+00
2.178790e+00
2.160170e+00
2.178790e+00
2.200190e+00
2.220550e+00
2.200190e+00
2.220550e+00
2.235050e+00
2.256890e+00
2.235050e+00
2.256890e+00
2.264640e+00
2.287700e+00
2.264640e+00
2.287700e+00
2.288910e+00
2.312940e+00
2.288910e+00
2.312940e+00
2.307810e+00
2.332570e+00
2.307810e+00
2.332570e+00
2.321320e+00
2.346600e+00
2.321320e+00
2.346600e+00
2.329430e+00
2.355010e+00
2.329430e+00
2.355010e+00
2.332140e+00
2.357810e+00
</DataArray>
<DataArray type="Float32" Name="V3" format="ascii">
0.000000e+00
0.000000e+00
4.384650e-02
4.281020e-02
4.384650e-02
4.281020e-02
8.752390e-02
8.545330e-02
8.752390e-02
8.545330e-02
1.308630e-01
1.277620e-01
1.308630e-01
1.277620e-01
1.736960e-01
1.695700e-01
1.736960e-01
1.695700e-01
2.158540e-01
2.107120e-01
2.158540e-01
2.107120e-01
2.571710e-01
2.510240e-01
2.571710e-01
2.510240e-01
2.974830e-01
2.903410e-01
2.974830e-01
2.903410e-01
3.366290e-01
3.285060e-01
3.366290e-01
3.285060e-01
3.744470e-01
3.653590e-01
3.744470e-01
3.653590e-01
4.107800e-01
4.007440e-01
4.107800e-01
4.007440e-01
4.454730e-01
4.345080e-01
4.454730e-01
4.345080e-01
4.783750e-01
4.665020e-01
4.783750e-01
4.665020e-01
5.093360e-01
4.965770e-01
5.093360e-01
4.965770e-01
5.382140e-01
5.245930e-01
5.382140e-01
5.245930e-01
5.648680e-01
5.504110e-01
5.648680e-01
5.504110e-01
5.891620e-01
5.738950e-01
5.891620e-01
5.738950e-01
6.109660e-01
5.949160e-01
6.109660e-01
5.949160e-01
6.301530e-01
6.133510e-01
6.301530e-01
6.133510e-01
6.466030e-01
6.290780e-01
6.466030e-01
6.290780e-01
6.602000e-01
6.419850e-01
6.602000e-01
6.419850e-01
6.708370e-01
6.519630e-01
6.708370e-01
6.519630e-01
6.784100e-01
6.589090e-01
6.784100e-01
6.589090e-01
6.828210e-01
6.627290e-01
6.828210e-01
6.627290e-01
6.839820e-01
6.633320e-01
6.839820e-01
6.633320e-01
6.818080e-01
6.606360e-01
6.818080e-01
6.606360e-01
6.762250e-01
6.545660e-01
6.762250e-01
6.545660e-01
6.671620e-01
6.450520e-01
6.671620e-01
6.450520e-01
6.545600e-01
6.320360e-01
6.545600e-01
6.320360e-01
6.383650e-01
6.154630e-01
6.383650e-01
6.154630e-01
6.185310e-01
5.952890e-01
6.185310e-01
5.952890e-01
5.950230e-01
5.714800e-01
5.950230e-01
5.714800e-01
5.678010e-01
5.440030e-01
5.678010e-01
5.440030e-01
5.368530e-01
5.128590e-01
5.368530e-01
5.128590e-01
5.021310e-01
4.780400e-01
5.021310e-01
4.780400e-01
4.636060e-01
4.396130e-01
4.636060e-01
4.396130e-01
4.211990e-01
3.976350e-01
4.211990e-01
3.976350e-01
3.759330e-01
3.523480e-01
3.759330e-01
3.523480e-01
3.318620e-01
3.092410e-01
3.318620e-01
3.092410e-01
2.907250e-01
2.697390e-01
2.907250e-01
2.697390e-01
2.522420e-01
2.332560e-01
2.522420e-01
2.332560e-01
2.160850e-01
1.993030e-01
2.160850e-01
1.993030e-01
1.818710e-01
1.674030e-01
1.818710e-01
1.674030e-01
1.492750e-01
1.371800e-01
1.492750e-01
1.371800e-01
1.179550e-01
1.082630e-01
1.179550e-01
1.082630e-01
8.763600e-02
8.036190e-02
8.763600e-02
8.036190e-02
5.803000e-02
5.317970e-02
5.803000e-02
5.317970e-02
2.890340e-02
2.647780e-02
2.890340e-02
2.647780e-02
0.000000e+00
0.000000e+00
</DataArray>
<DataArray type="Float32" Name="V4" format="ascii">
9.000000e-01
1.000000e+00
9.000000e-01
1.000000e+00
9.000000e-01
1.000000e+00
9.000000e-01
1.000000e+00
9.000000e-01
1.000000e+00
9.000000e-01
1.000000e+00
9.000000e-01
1.000000e+00
9.000000e-01
1.000000e+00
9.000000e-01
1.000000e+00
9.000000e-01
1.000000e+00
9.000000e-01
1.000000e+00
9.000000e-01
1.000000e+00
9.000000e-01
1.000000e+00
9.000000e-01
1.000000e+00
9.000000e-01
1.000000e+00
9.000000e-01
1.000000e+00
9.000000e-01
1.000000e+00
9.000000e-01
1.000000e+00
9.000000e-01
1.000000e+00
9.000000e-01
1.000000e+00
9.000000e-01
1.000000e+00
9.000000e-01
1.000000e+00
9.000000e-01
1.000000e+00
9.000000e-01
1.000000e+00
9.000000e-01
1.000000e+00
9.000000e-01
1.000000e+00
9.000000e-01
1.000000e+00
9.000000e-01
1.000000e+00
9.000000e-01
1.000000e+00
9.000000e-01
1.000000e+00
9.000000e-01
1.000000e+00
9.000000e-01
1.000000e+00
9.000000e-01
1.000000e+00
9.000000e-01
1.000000e+00
9.000000e-01
1.000000e+00
9.000000e-01
1.000000e+00
9.000000e-01
1.000000e+00
9.000000e-01
1.000000e+00
9.000000e-01
1.000000e+00
9.000000e-01
1.000000e+00
9.000000e-01
1.000000e+00
9.000000e-01
1.000000e+00
9.000000e-01
1.000000e+00
9.000000e-01
1.000000e+00
9.000000e-01
1.000000e+00
9.000000e-01
1.000000e+00
9.000000e-01
1.000000e+00
9.000000e-01
1.000000e+00
9.000000e-01
1.000000e+00
9.000000e-01
1.000000e+00
9.000000e-01
1.000000e+00
9.000000e-01
1.000000e+00
9.000000e-01
1.000000e+00
9.000000e-01
1.000000e+00
9.000000e-01
1.000000e+00
9.000000e-01
1.000000e+00
9.000000e-01
1.000000e+00
9.000000e-01
1.000000e+00
9.000000e-01
1.000000e+00
9.000000e-01
1.000000e+00
9.000000e-01
1.000000e+00
9.000000e-01
1.000000e+00
9.000000e-01
1.000000e+00
9.000000e-01
1.000000e+00
9.000000e-01
1.000000e+00
9.000000e-01
1.000000e+00
9.000000e-01
1.000000e+00
9.000000e-01
1.000000e+00
9.000000e-01
1.000000e+00
9.000000e-01
1.000000e+00
9.000000e-01
1.000000e+00
9.000000e-01
1.000000e+00
9.000000e-01
1.000000e+00
9.000000e-01
1.000000e+00
9.000000e-01
1.000000e+00
9.000000e-01
1.000000e+00
9.000000e-01
1.000000e+00
9.000000e-01
1.000000e+00
9.000000e-01
1.000000e+00
9.000000e-01
1.000000e+00
9.000000e-01
1.000000e+00
9.000000e-01
1.000000e+00
9.000000e-01
1.000000e+00
9.000000e-01
1.000000e+00
9.000000e-01
1.000000e+00
9.000000e-01
1.000000e+00
9.000000e-01
1.000000e+00
9.000000e-01
1.000000e+00
9.000000e-01
1.000000e+00
9.000000e-01
1.000000e+00
9.000000e-01
1.000000e+00
9.000000e-01
1.000000e+00
9.000000e-01
1.000000e+00
9.000000e-01
1.000000e+00
9.000000e-01
1.000000e+00
9.000000e-01
1.000000e+00
</DataArray>
<DataArray type="Float32" Name="V5" format="ascii">
0.000000e+00
0.000000e+00
3.272490e-02
3.272490e-02
3.272490e-02
3.272490e-02
6.544980e-02
6.544980e-02
6.544980e-02
6.544980e-02
9.817480e-02
9.817480e-02
9.817480e-02
9.817480e-02
1.309000e-01
1.309000e-01
1.309000e-01
1.309000e-01
1.636250e-01
1.636250e-01
1.636250e-01
1.636250e-01
1.963500e-01
1.963500e-01
1.963500e-01
1.963500e-01
2.290740e-01
2.290740e-01
2.290740e-01
2.290740e-01
2.617990e-01
2.617990e-01
2.617990e-01
2.617990e-01
2.945240e-01
2.945240e-01
2.945240e-01
2.945240e-01
3.272490e-01
3.272490e-01
3.272490e-01
3.272490e-01
3.599740e-01
3.599740e-01
3.599740e-01
3.599740e-01
3.926990e-01
3.926990e-01
3.926990e-01
3.926990e-01
4.254240e-01
4.254240e-01
4.254240e-01
4.254240e-01
4.581490e-01
4.581490e-01
4.581490e-01
4.581490e-01
4.908740e-01
4.908740e-01
4.908740e-01
4.908740e-01
5.235990e-01
5.235990e-01
5.235990e-01
5.235990e-01
5.563240e-01
5.563240e-01
5.563240e-01
5.563240e-01
5.890490e-01
5.890490e-01
5.890490e-01
5.890490e-01
6.217740e-01
6.217740e-01
6.217740e-01
6.217740e-01
6.544980e-01
6.544980e-01
6.544980e-01
6.544980e-01
6.872230e-01
6.872230e-01
6.872230e-01
6.872230e-01
7.199480e-01
7.199480e-01
7.199480e-01
7.199480e-01
7.526730e-01
7.526730e-01
7.526730e-01
7.526730e-01
7.853980e-01
7.853980e-01
7.853980e-01
7.853980e-01
8.181230e-01
8.181230e-01
8.181230e-01
8.181230e-01
8.508480e-01
8.508480e-01
8.508480e-01
8.508480e-01
8.835730e-01
8.835730e-01
8.835730e-01
8.835730e-01
9.162980e-01
9.162980e-01
9.162980e-01
9.162980e-01
9.490230e-01
9.490230e-01
9.490230e-01
9.490230e-01
9.817480e-01
9.817480e-01
9.817480e-01
9.817480e-01
1.014470e+00
1.014470e+00
1.014470e+00
1.014470e+00
1.047200e+00
1.047200e+00
1.047200e+00
1.047200e+00
1.079920e+00
1.079920e+00
1.079920e+00
1.079920e+00
1.112650e+00
1.112650e+00
1.112650e+00
1.112650e+00
1.145370e+00
1.145370e+00
1.145370e+00
1.145370e+00
1.178100e+00
1.178100e+00
1.178100e+00
1.178100e+00
1.210820e+00
1.210820e+00
1.210820e+00
1.210820e+00
1.243550e+00
1.243550e+00
1.243550e+00
1.243550e+00
1.276270e+00
1.276270e+00
1.276270e+00
1.276270e+00
1.309000e+00
1.309000e+00
1.309000e+00
1.309000e+00
1.341720e+00
1.341720e+00
1.341720e+00
1.341720e+00
1.374450e+00
1.374450e+00
1.374450e+00
1.374450e+00
1.407170e+00
1.407170e+00
1.407170e+00
1.407170e+00
1.439900e+00
1.439900e+00
1.439900e+00
1.439900e+00
1.472620e+00
1.472620e+00
1.472620e+00
1.472620e+00
1.505350e+00
1.505350e+00
1.505350e+00
1.505350e+00
1.538070e+00
1.538070e+00
1.538070e+00
1.538070e+00
1.570800e+00
1.570800e+00
</DataArray>
</PointData>
</Piece></UnstructuredGrid>
</VTKFile>
