<?xml version="1.0"?>
<VTKFile type="UnstructuredGrid" version="0.1" byte_order="LittleEndian" compressor="vtkZLibDataCompressor">
<UnstructuredGrid>
<Piece NumberOfPoints="192" NumberOfCells="48">
<Points>
<DataArray type="Float32" NumberOfComponents="3" format="ascii">
0.000000e+00 4.605730e-01 0.000000e+00
0.000000e+00 5.300000e-01 0.000000e+00
3.734180e-02 4.605840e-01 0.000000e+00
3.732160e-02 5.300000e-01 0.000000e+00
3.734180e-02 4.605840e-01 0.000000e+00
3.732160e-02 5.300000e-01 0.000000e+00
7.468310e-02 4.606190e-01 0.000000e+00
7.464260e-02 5.300000e-01 0.000000e+00
7.468310e-02 4.606190e-01 0.000000e+00
7.464260e-02 5.300000e-01 0.000000e+00
1.120230e-01 4.606780e-01 0.000000e+00
1.119630e-01 5.300000e-01 0.000000e+00
1.120230e-01 4.606780e-01 0.000000e+00
1.119630e-01 5.300000e-01 0.000000e+00
1.493620e-01 4.607600e-01 0.000000e+00
1.492810e-01 5.300000e-01 0.000000e+00
1.493620e-01 4.607600e-01 0.000000e+00
1.492810e-01 5.300000e-01 0.000000e+00
1.866990e-01 4.608660e-01 0.000000e+00
1.865980e-01 5.300000e-01 0.000000e+00
1.866990e-01 4.608660e-01 0.000000e+00
1.865980e-01 5.300000e-01 0.000000e+00
2.240320e-01 4.609940e-01 0.000000e+00
2.239120e-01 5.300000e-01 0.000000e+00
2.240320e-01 4.609940e-01 0.000000e+00
2.239120e-01 5.300000e-01 0.000000e+00
2.613610e-01 4.611460e-01 0.000000e+00
2.612210e-01 5.300000e-01 0.000000e+00
2.613610e-01 4.611460e-01 0.000000e+00
2.612210e-01 5.300000e-01 0.000000e+00
2.986870e-01 4.613210e-01 0.000000e+00
2.985280e-01 5.300000e-01 0.000000e+00
2.986870e-01 4.613210e-01 0.000000e+00
2.985280e-01 5.300000e-01 0.000000e+00
3.360090e-01 4.615190e-01 0.000000e+00
3.358300e-01 5.300000e-01 0.000000e+00
3.360090e-01 4.615190e-01 0.000000e+00
3.358300e-01 5.300000e-01 0.000000e+00
3.733260e-01 4.617400e-01 0.000000e+00
3.731270e-01 5.300000e-01 0.000000e+00
3.733260e-01 4.617400e-01 0.000000e+00
3.731270e-01 5.300000e-01 0.000000e+00
4.106370e-01 4.619830e-01 0.000000e+00
4.104190e-01 5.300000e-01 0.000000e+00
4.106370e-01 4.619830e-01 0.000000e+00
4.104190e-01 5.300000e-01 0.000000e+00
4.479410e-01 4.622490e-01 0.000000e+00
4.477050e-01 5.300000e-01 0.000000e+00
4.479410e-01 4.622490e-01 0.000000e+00
4.477050e-01 5.300000e-01 0.000000e+00
4.852390e-01 4.625370e-01 0.000000e+00
4.849850e-01 5.300000e-01 0.000000e+00
4.852390e-01 4.625370e-01 0.000000e+00
4.849850e-01 5.300000e-01 0.000000e+00
5.225280e-01 4.628480e-01 0.000000e+00
5.222570e-01 5.300000e-01 0.000000e+00
5.225280e-01 4.628480e-01 0.000000e+00
5.222570e-01 5.300000e-01 0.000000e+00
5.598100e-01 4.631800e-01 0.000000e+00
5.595210e-01 5.300000e-01 0.000000e+00
5.598100e-01 4.631800e-01 0.000000e+00
5.595210e-01 5.300000e-01 0.000000e+00
5.970830e-01 4.635340e-01 0.000000e+00
5.967760e-01 5.300000e-01 0.000000e+00
5.970830e-01 4.635340e-01 0.000000e+00
5.967760e-01 5.300000e-01 0.000000e+00
6.343450e-01 4.639090e-01 0.000000e+00
6.340220e-01 5.300000e-01 0.000000e+00
6.343450e-01 4.639090e-01 0.000000e+00
6.340220e-01 5.300000e-01 0.000000e+00
6.715980e-01 4.643060e-01 0.000000e+00
6.712570e-01 5.300000e-01 0.000000e+00
6.715980e-01 4.643060e-01 0.000000e+00
6.712570e-01 5.300000e-01 0.000000e+00
7.088400e-01 4.647230e-01 0.000000e+00
7.084820e-01 5.300000e-01 0.000000e+00
7.088400e-01 4.647230e-01 0.000000e+00
7.084820e-01 5.300000e-01 0.000000e+00
7.460680e-01 4.651630e-01 0.000000e+00
7.456950e-01 5.300000e-01 0.000000e+00
7.460680e-01 4.651630e-01 0.000000e+00
7.456950e-01 5.300000e-01 0.000000e+00
7.832850e-01 4.656250e-01 0.000000e+00
7.829000e-01 5.300000e-01 0.000000e+00
7.832850e-01 4.656250e-01 0.000000e+00
7.829000e-01 5.300000e-01 0.000000e+00
8.204840e-01 4.661120e-01 0.000000e+00
8.201030e-01 5.300000e-01 0.000000e+00
8.204840e-01 4.661120e-01 0.000000e+00
8.201030e-01 5.300000e-01 0.000000e+00
8.576530e-01 4.666300e-01 0.000000e+00
8.573250e-01 5.300000e-01 0.000000e+00
8.576530e-01 4.666300e-01 0.000000e+00
8.573250e-01 5.300000e-01 0.000000e+00
8.947540e-01 4.671810e-01 0.000000e+00
8.946110e-01 5.300000e-01 0.000000e+00
8.947540e-01 4.671810e-01 0.000000e+00
8.946110e-01 5.300000e-01 0.000000e+00
9.316960e-01 4.677530e-01 0.000000e+00
9.320490e-01 5.300000e-01 0.000000e+00
9.316960e-01 4.677530e-01 0.000000e+00
9.320490e-01 5.300000e-01 0.000000e+00
9.682680e-01 4.682600e-01 0.000000e+00
9.697740e-01 5.300000e-01 0.000000e+00
9.682680e-01 4.682600e-01 0.000000e+00
9.697740e-01 5.300000e-01 0.000000e+00
1.004090e+00 4.683950e-01 0.000000e+00
1.007870e+00 5.300000e-01 0.000000e+00
1.004090e+00 4.683950e-01 0.000000e+00
1.007870e+00 5.300000e-01 0.000000e+00
1.038960e+00 4.674590e-01 0.000000e+00
1.045890e+00 5.297410e-01 0.000000e+00
1.038960e+00 4.674590e-01 0.000000e+00
1.045890e+00 5.297410e-01 0.000000e+00
1.072840e+00 4.642860e-01 0.000000e+00
1.083410e+00 5.258540e-01 0.000000e+00
1.072840e+00 4.642860e-01 0.000000e+00
1.083410e+00 5.258540e-01 0.000000e+00
1.105620e+00 4.583300e-01 0.000000e+00
1.120750e+00 5.183210e-01 0.000000e+00
1.105620e+00 4.583300e-01 0.000000e+00
1.120750e+00 5.183210e-01 0.000000e+00
1.137470e+00 4.494120e-01 0.000000e+00
1.157420e+00 5.073480e-01 0.000000e+00
1.137470e+00 4.494120e-01 0.000000e+00
1.157420e+00 5.073480e-01 0.000000e+00
1.168360e+00 4.376090e-01 0.000000e+00
1.193000e+00 4.930830e-01 0.000000e+00
1.168360e+00 4.376090e-01 0.000000e+00
1.193000e+00 4.930830e-01 0.000000e+00
1.198110e+00 4.230710e-01 0.000000e+00
1.227140e+00 4.757580e-01 0.000000e+00
1.198110e+00 4.230710e-01 0.000000e+00
1.227140e+00 4.757580e-01 0.000000e+00
1.226590e+00 4.059620e-01 0.000000e+00
1.259640e+00 4.556120e-01 0.000000e+00
1.226590e+00 4.059620e-01 0.000000e+00
1.259640e+00 4.556120e-01 0.000000e+00
1.253620e+00 3.864800e-01 0.000000e+00
1.290300e+00 4.329090e-01 0.000000e+00
1.253620e+00 3.864800e-01 0.000000e+00
1.290300e+00 4.329090e-01 0.000000e+00
1.279100e+00 3.648060e-01 0.000000e+00
1.319020e+00 4.078800e-01 0.000000e+00
1.279100e+00 3.648060e-01 0.000000e+00
1.319020e+00 4.078800e-01 0.000000e+00
1.302870e+00 3.411450e-01 0.000000e+00
1.345670e+00 3.807720e-01 0.000000e+00
1.302870e+00 3.411450e-01 0.000000e+00
1.345670e+00 3.807720e-01 0.000000e+00
1.324870e+00 3.156730e-01 0.000000e+00
1.370200e+00 3.517850e-01 0.000000e+00
1.324870e+00 3.156730e-01 0.000000e+00
1.370200e+00 3.517850e-01 0.000000e+00
1.344980e+00 2.885890e-01 0.000000e+00
1.392530e+00 3.211440e-01 0.000000e+00
1.344980e+00 2.885890e-01 0.000000e+00
1.392530e+00 3.211440e-01 0.000000e+00
1.363140e+00 2.600560e-01 0.000000e+00
1.412620e+00 2.890230e-01 0.000000e+00
1.363140e+00 2.600560e-01 0.000000e+00
1.412620e+00 2.890230e-01 0.000000e+00
1.379290e+00 2.302660e-01 0.000000e+00
1.430420e+00 2.556280e-01 0.000000e+00
1.379290e+00 2.302660e-01 0.000000e+00
1.430420e+00 2.556280e-01 0.000000e+00
1.393390e+00 1.993700e-01 0.000000e+00
1.445920e+00 2.211150e-01 0.000000e+00
1.393390e+00 1.993700e-01 0.000000e+00
1.445920e+00 2.211150e-01 0.000000e+00
1.405370e+00 1.675520e-01 0.000000e+00
1.459060e+00 1.856760e-01 0.000000e+00
1.405370e+00 1.675520e-01 0.000000e+00
1.459060e+00 1.856760e-01 0.000000e+00
1.415230e+00 1.349530e-01 0.000000e+00
1.469850e+00 1.494520e-01 0.000000e+00
1.415230e+00 1.349530e-01 0.000000e+00
1.469850e+00 1.494520e-01 0.000000e+00
1.422910e+00 1.017510e-01 0.000000e+00
1.478260e+00 1.126250e-01 0.000000e+00
1.422910e+00 1.017510e-01 0.000000e+00
1.478260e+00 1.126250e-01 0.000000e+00
1.428420e+00 6.808210e-02 0.000000e+00
1.484270e+00 7.533060e-02 0.000000e+00
1.428420e+00 6.808210e-02 0.000000e+00
1.484270e+00 7.533060e-02 0.000000e+00
1.431730e+00 3.411940e-02 0.000000e+00
1.487880e+00 3.774400e-02 0.000000e+00
1.431730e+00 3.411940e-02 0.000000e+00
1.487880e+00 3.774400e-02 0.000000e+00
1.432840e+00 -5.263100e-06 0.000000e+00
1.489080e+00 -5.469710e-06 0.000000e+00
</DataArray>
</Points>
<Cells>
<DataArray type="Int32" Name="connectivity" format="ascii">
0 1 3 2
4 5 7 6
8 9 11 10
12 13 15 14
16 17 19 18
20 21 23 22
24 25 27 26
28 29 31 30
32 33 35 34
36 37 39 38
40 41 43 42
44 45 47 46
48 49 51 50
52 53 55 54
56 57 59 58
60 61 63 62
64 65 67 66
68 69 71 70
72 73 75 74
76 77 79 78
80 81 83 82
84 85 87 86
88 89 91 90
92 93 95 94
96 97 99 98
100 101 103 102
104 105 107 106
108 109 111 110
112 113 115 114
116 117 119 118
120 121 123 122
124 125 127 126
128 129 131 130
132 133 135 134
136 137 139 138
140 141 143 142
144 145 147 146
148 149 151 150
152 153 155 154
156 157 159 158
160 161 163 162
164 165 167 166
168 169 171 170
172 173 175 174
176 177 179 178
180 181 183 182
184 185 187 186
188 189 191 190
</DataArray>
<DataArray type="Int32" Name="offsets" format="ascii">
4
8
12
16
20
24
28
32
36
40
44
48
52
56
60
64
68
72
76
80
84
88
92
96
100
104
108
112
116
120
124
128
132
136
140
144
148
152
156
160
164
168
172
176
180
184
188
192
</DataArray>
<DataArray type="UInt8" Name="types" format="ascii">
9
9
9
9
9
9
9
9
9
9
9
9
9
9
9
9
9
9
9
9
9
9
9
9
9
9
9
9
9
9
9
9
9
9
9
9
9
9
9
9
9
9
9
9
9
9
9
9
</DataArray>
</Cells>
<PointData>
<DataArray type="Float32" Name="V1" format="ascii">
3.688190e+00
1.277490e+00
3.690470e+00
1.279760e+00
3.691020e+00
1.279600e+00
3.696450e+00
1.285030e+00
3.697470e+00
1.284550e+00
3.706840e+00
1.293930e+00
3.708170e+00
1.293010e+00
3.721450e+00
1.306290e+00
3.723130e+00
1.304960e+00
3.740310e+00
1.322140e+00
3.742370e+00
1.320420e+00
3.763460e+00
1.341500e+00
3.765910e+00
1.339380e+00
3.790940e+00
1.364410e+00
3.793800e+00
1.361890e+00
3.822800e+00
1.390890e+00
3.826080e+00
1.387960e+00
3.859090e+00
1.420970e+00
3.862820e+00
1.417620e+00
3.899890e+00
1.454690e+00
3.904060e+00
1.450910e+00
3.945250e+00
1.492090e+00
3.949900e+00
1.487870e+00
3.995260e+00
1.533230e+00
4.000400e+00
1.528540e+00
4.050010e+00
1.578150e+00
4.055670e+00
1.572990e+00
4.109610e+00
1.626920e+00
4.115800e+00
1.621250e+00
4.174150e+00
1.679600e+00
4.180920e+00
1.673400e+00
4.243770e+00
1.736250e+00
4.251140e+00
1.729500e+00
4.318600e+00
1.796950e+00
4.326630e+00
1.789590e+00
4.398800e+00
1.861760e+00
4.407550e+00
1.853750e+00
4.484520e+00
1.930720e+00
4.494030e+00
1.922030e+00
4.575890e+00
2.003880e+00
4.586060e+00
1.994590e+00
4.672810e+00
2.081340e+00
4.683040e+00
2.072020e+00
4.774550e+00
2.163540e+00
4.782560e+00
2.156260e+00
4.878530e+00
2.252230e+00
4.877550e+00
2.253050e+00
4.977680e+00
2.353190e+00
4.950030e+00
2.377810e+00
5.055380e+00
2.483170e+00
4.960350e+00
2.567460e+00
5.078380e+00
2.685490e+00
4.836680e+00
2.898920e+00
4.996210e+00
3.058460e+00
4.503060e+00
3.510710e+00
4.751910e+00
3.759560e+00
4.249480e+00
4.238220e+00
4.406060e+00
4.394800e+00
4.187630e+00
4.577740e+00
4.314920e+00
4.705030e+00
4.224130e+00
4.786820e+00
4.350890e+00
4.913580e+00
4.321320e+00
4.940630e+00
4.446530e+00
5.065840e+00
4.447770e+00
5.064810e+00
4.569480e+00
5.186510e+00
4.585730e+00
5.171820e+00
4.702650e+00
5.288730e+00
4.725580e+00
5.268020e+00
4.836630e+00
5.379060e+00
4.861800e+00
5.356270e+00
4.966290e+00
5.460750e+00
4.991470e+00
5.438000e+00
5.088750e+00
5.535290e+00
5.112720e+00
5.513620e+00
5.202420e+00
5.603320e+00
5.224620e+00
5.583290e+00
5.306360e+00
5.665040e+00
5.326460e+00
5.646890e+00
5.400040e+00
5.720470e+00
5.417940e+00
5.704340e+00
5.483150e+00
5.769540e+00
5.498770e+00
5.755440e+00
5.555490e+00
5.812150e+00
5.568850e+00
5.800120e+00
5.616960e+00
5.848220e+00
5.628050e+00
5.838220e+00
5.667490e+00
5.877660e+00
5.676350e+00
5.869700e+00
5.707060e+00
5.900410e+00
5.713690e+00
5.894450e+00
5.735650e+00
5.916410e+00
5.740060e+00
5.912450e+00
5.753240e+00
5.925640e+00
5.755440e+00
5.923660e+00
5.759840e+00
5.928050e+00
</DataArray>
<DataArray type="Float32" Name="V2" format="ascii">
4.605730e-01
5.300000e-01
4.615590e-01
5.309370e-01
4.615590e-01
5.309370e-01
4.645180e-01
5.337470e-01
4.645180e-01
5.337470e-01
4.694400e-01
5.384220e-01
4.694400e-01
5.384220e-01
4.763140e-01
5.449510e-01
4.763140e-01
5.449510e-01
4.851220e-01
5.533170e-01
4.851220e-01
5.533170e-01
4.958430e-01
5.634990e-01
4.958430e-01
5.634990e-01
5.084480e-01
5.754720e-01
5.084480e-01
5.754720e-01
5.229080e-01
5.892050e-01
5.229080e-01
5.892050e-01
5.391840e-01
6.046650e-01
5.391840e-01
6.046650e-01
5.572370e-01
6.218110e-01
5.572370e-01
6.218110e-01
5.770190e-01
6.406000e-01
5.770190e-01
6.406000e-01
5.984820e-01
6.609860e-01
5.984820e-01
6.609860e-01
6.215700e-01
6.829140e-01
6.215700e-01
6.829140e-01
6.462240e-01
7.063310e-01
6.462240e-01
7.063310e-01
6.723810e-01
7.311740e-01
6.723810e-01
7.311740e-01
6.999730e-01
7.573810e-01
6.999730e-01
7.573810e-01
7.289300e-01
7.848840e-01
7.289300e-01
7.848840e-01
7.591760e-01
8.136090e-01
7.591760e-01
8.136090e-01
7.906320e-01
8.434840e-01
7.906320e-01
8.434840e-01
8.232160e-01
8.744270e-01
8.232160e-01
8.744270e-01
8.568430e-01
9.063620e-01
8.568430e-01
9.063620e-01
8.914240e-01
9.392070e-01
8.914240e-01
9.392070e-01
9.268610e-01
9.728890e-01
9.268610e-01
9.728890e-01
9.630340e-01
1.007350e+00
9.630340e-01
1.007350e+00
9.997640e-01
1.042570e+00
9.997640e-01
1.042570e+00
1.036730e+00
1.078570e+00
1.036730e+00
1.078570e+00
1.073320e+00
1.115320e+00
1.073320e+00
1.115320e+00
1.108840e+00
1.152250e+00
1.108840e+00
1.152250e+00
1.142490e+00
1.186940e+00
1.142490e+00
1.186940e+00
1.173920e+00
1.219830e+00
1.173920e+00
1.219830e+00
1.203260e+00
1.250800e+00
1.203260e+00
1.250800e+00
1.230630e+00
1.279710e+00
1.230630e+00
1.279710e+00
1.256070e+00
1.306520e+00
1.256070e+00
1.306520e+00
1.279650e+00
1.331250e+00
1.279650e+00
1.331250e+00
1.301380e+00
1.353950e+00
1.301380e+00
1.353950e+00
1.321340e+00
1.374700e+00
1.321340e+00
1.374700e+00
1.339530e+00
1.393550e+00
1.339530e+00
1.393550e+00
1.356030e+00
1.410560e+00
1.356030e+00
1.410560e+00
1.370830e+00
1.425790e+00
1.370830e+00
1.425790e+00
1.384000e+00
1.439290e+00
1.384000e+00
1.439290e+00
1.395550e+00
1.451100e+00
1.395550e+00
1.451100e+00
1.405510e+00
1.461270e+00
1.405510e+00
1.461270e+00
1.413890e+00
1.469820e+00
1.413890e+00
1.469820e+00
1.420730e+00
1.476780e+00
1.420730e+00
1.476780e+00
1.426040e+00
1.482180e+00
1.426040e+00
1.482180e+00
1.429820e+00
1.486020e+00
1.429820e+00
1.486020e+00
1.432080e+00
1.488320e+00
1.432080e+00
1.488320e+00
1.432840e+00
1.489080e+00
</DataArray>
<DataArray type="Float32" Name="V3" format="ascii">
0.000000e+00
0.000000e+00
2.225190e-02
1.996050e-02
2.225190e-02
1.996050e-02
4.439720e-02
3.981910e-02
4.439720e-02
3.981910e-02
6.632950e-02
5.947450e-02
6.632950e-02
5.947450e-02
8.794290e-02
7.882530e-02
8.794290e-02
7.882530e-02
1.091320e-01
9.777070e-02
1.091320e-01
9.777070e-02
1.297920e-01
1.162110e-01
1.297920e-01
1.162110e-01
1.498190e-01
1.340470e-01
1.498190e-01
1.340470e-01
1.691110e-01
1.511820e-01
1.691110e-01
1.511820e-01
1.875690e-01
1.675190e-01
1.875690e-01
1.675190e-01
2.050920e-01
1.829630e-01
2.050920e-01
1.829630e-01
2.215840e-01
1.974220e-01
2.215840e-01
1.974220e-01
2.369490e-01
2.108040e-01
2.369490e-01
2.108040e-01
2.510940e-01
2.230200e-01
2.510940e-01
2.230200e-01
2.639290e-01
2.339850e-01
2.639290e-01
2.339850e-01
2.753670e-01
2.436130e-01
2.753670e-01
2.436130e-01
2.853220e-01
2.518230e-01
2.853220e-01
2.518230e-01
2.937120e-01
2.585360e-01
2.937120e-01
2.585360e-01
3.004590e-01
2.636770e-01
3.004590e-01
2.636770e-01
3.054870e-01
2.671740e-01
3.054870e-01
2.671740e-01
3.087230e-01
2.689560e-01
3.087230e-01
2.689560e-01
3.100990e-01
2.689620e-01
3.100990e-01
2.689620e-01
3.095440e-01
2.671330e-01
3.095440e-01
2.671330e-01
3.069850e-01
2.634270e-01
3.069850e-01
2.634270e-01
3.023400e-01
2.578190e-01
3.023400e-01
2.578190e-01
2.955040e-01
2.503140e-01
2.955040e-01
2.503140e-01
2.863670e-01
2.409410e-01
2.863670e-01
2.409410e-01
2.749160e-01
2.296880e-01
2.749160e-01
2.296880e-01
2.616200e-01
2.164280e-01
2.616200e-01
2.164280e-01
2.475130e-01
2.036220e-01
2.475130e-01
2.036220e-01
2.331600e-01
1.916860e-01
2.331600e-01
1.916860e-01
2.190240e-01
1.803590e-01
2.190240e-01
1.803590e-01
2.051950e-01
1.694750e-01
2.051950e-01
1.694750e-01
1.916720e-01
1.588940e-01
1.916720e-01
1.588940e-01
1.784060e-01
1.484960e-01
1.784060e-01
1.484960e-01
1.653510e-01
1.381990e-01
1.653510e-01
1.381990e-01
1.524480e-01
1.279290e-01
1.524480e-01
1.279290e-01
1.396600e-01
1.176480e-01
1.396600e-01
1.176480e-01
1.269400e-01
1.073150e-01
1.269400e-01
1.073150e-01
1.142660e-01
9.691650e-02
1.142660e-01
9.691650e-02
1.016080e-01
8.643340e-02
1.016080e-01
8.643340e-02
8.895650e-02
7.586750e-02
8.895650e-02
7.586750e-02
7.629260e-02
6.521310e-02
7.629260e-02
6.521310e-02
6.361760e-02
5.448190e-02
6.361760e-02
5.448190e-02
5.092120e-02
4.367610e-02
5.092120e-02
4.367610e-02
3.821100e-02
3.281370e-02
3.821100e-02
3.281370e-02
2.548190e-02
2.190130e-02
2.548190e-02
2.190130e-02
1.274580e-02
1.096040e-02
1.274580e-02
1.096040e-02
0.000000e+00
0.000000e+00
</DataArray>
<DataArray type="Float32" Name="V4" format="ascii">
9.000000e-01
1.000000e+00
9.000000e-01
1.000000e+00
9.000000e-01
1.000000e+00
9.000000e-01
1.000000e+00
9.000000e-01
1.000000e+00
9.000000e-01
1.000000e+00
9.000000e-01
1.000000e+00
9.000000e-01
1.000000e+00
9.000000e-01
1.000000e+00
9.000000e-01
1.000000e+00
9.000000e-01
1.000000e+00
9.000000e-01
1.000000e+00
9.000000e-01
1.000000e+00
9.000000e-01
1.000000e+00
9.000000e-01
1.000000e+00
9.000000e-01
1.000000e+00
9.000000e-01
1.000000e+00
9.000000e-01
1.000000e+00
9.000000e-01
1.000000e+00
9.000000e-01
1.000000e+00
9.000000e-01
1.000000e+00
9.000000e-01
1.000000e+00
9.000000e-01
1.000000e+00
9.000000e-01
1.000000e+00
9.000000e-01
1.000000e+00
9.000000e-01
1.000000e+00
9.000000e-01
1.000000e+00
9.000000e-01
1.000000e+00
9.000000e-01
1.000000e+00
9.000000e-01
1.000000e+00
9.000000e-01
1.000000e+00
9.000000e-01
1.000000e+00
9.000000e-01
1.000000e+00
9.000000e-01
1.000000e+00
9.000000e-01
1.000000e+00
9.000000e-01
1.000000e+00
9.000000e-01
1.000000e+00
9.000000e-01
1.000000e+00
9.000000e-01
1.000000e+00
9.000000e-01
1.000000e+00
9.000000e-01
1.000000e+00
9.000000e-01
1.000000e+00
9.000000e-01
1.000000e+00
9.000000e-01
1.000000e+00
9.000000e-01
1.000000e+00
9.000000e-01
1.000000e+00
9.000000e-01
1.000000e+00
9.000000e-01
1.000000e+00
9.000000e-01
1.000000e+00
9.000000e-01
1.000000e+00
9.000000e-01
1.000000e+00
9.000000e-01
1.000000e+00
9.000000e-01
1.000000e+00
9.000000e-01
1.000000e+00
9.000000e-01
1.000000e+00
9.000000e-01
1.000000e+00
9.000000e-01
1.000000e+00
9.000000e-01
1.000000e+00
9.000000e-01
1.000000e+00
9.000000e-01
1.000000e+00
9.000000e-01
1.000000e+00
9.000000e-01
1.000000e+00
9.000000e-01
1.000000e+00
9.000000e-01
1.000000e+00
9.000000e-01
1.000000e+00
9.000000e-01
1.000000e+00
9.000000e-01
1.000000e+00
9.000000e-01
1.000000e+00
9.000000e-01
1.000000e+00
9.000000e-01
1.000000e+00
9.000000e-01
1.000000e+00
9.000000e-01
1.000000e+00
9.000000e-01
1.000000e+00
9.000000e-01
1.000000e+00
9.000000e-01
1.000000e+00
9.000000e-01
1.000000e+00
9.000000e-01
1.000000e+00
9.000000e-01
1.000000e+00
9.000000e-01
1.000000e+00
9.000000e-01
1.000000e+00
9.000000e-01
1.000000e+00
9.000000e-01
1.000000e+00
9.000000e-01
1.000000e+00
9.000000e-01
1.000000e+00
9.000000e-01
1.000000e+00
9.000000e-01
1.000000e+00
9.000000e-01
1.000000e+00
9.000000e-01
1.000000e+00
9.000000e-01
1.000000e+00
9.000000e-01
1.000000e+00
9.000000e-01
1.000000e+00
9.000000e-01
1.000000e+00
9.000000e-01
1.000000e+00
9.000000e-01
1.000000e+00
9.000000e-01
1.000000e+00
9.000000e-01
1.000000e+00
</DataArray>
<DataArray type="Float32" Name="V5" format="ascii">
0.000000e+00
0.000000e+00
3.272490e-02
3.272490e-02
3.272490e-02
3.272490e-02
6.544980e-02
6.544980e-02
6.544980e-02
6.544980e-02
9.817480e-02
9.817480e-02
9.817480e-02
9.817480e-02
1.309000e-01
1.309000e-01
1.309000e-01
1.309000e-01
1.636250e-01
1.636250e-01
1.636250e-01
1.636250e-01
1.963500e-01
1.963500e-01
1.963500e-01
1.963500e-01
2.290740e-01
2.290740e-01
2.290740e-01
2.290740e-01
2.617990e-01
2.617990e-01
2.617990e-01
2.617990e-01
2.945240e-01
2.945240e-01
2.945240e-01
2.945240e-01
3.272490e-01
3.272490e-01
3.272490e-01
3.272490e-01
3.599740e-01
3.599740e-01
3.599740e-01
3.599740e-01
3.926990e-01
3.926990e-01
3.926990e-01
3.926990e-01
4.254240e-01
4.254240e-01
4.254240e-01
4.254240e-01
4.581490e-01
4.581490e-01
4.581490e-01
4.581490e-01
4.908740e-01
4.908740e-01
4.908740e-01
4.908740e-01
5.235990e-01
5.235990e-01
5.235990e-01
5.235990e-01
5.563240e-01
5.563240e-01
5.563240e-01
5.563240e-01
5.890490e-01
5.890490e-01
5.890490e-01
5.890490e-01
6.217740e-01
6.217740e-01
6.217740e-01
6.217740e-01
6.544980e-01
6.544980e-01
6.544980e-01
6.544980e-01
6.872230e-01
6.872230e-01
6.872230e-01
6.872230e-01
7.199480e-01
7.199480e-01
7.199480e-01
7.199480e-01
7.526730e-01
7.526730e-01
7.526730e-01
7.526730e-01
7.853980e-01
7.853980e-01
7.853980e-01
7.853980e-01
8.181230e-01
8.181230e-01
8.181230e-01
8.181230e-01
8.508480e-01
8.508480e-01
8.508480e-01
8.508480e-01
8.835730e-01
8.835730e-01
8.835730e-01
8.835730e-01
9.162980e-01
9.162980e-01
9.162980e-01
9.162980e-01
9.490230e-01
9.490230e-01
9.490230e-01
9.490230e-01
9.817480e-01
9.817480e-01
9.817480e-01
9.817480e-01
1.014470e+00
1.014470e+00
1.014470e+00
1.014470e+00
1.047200e+00
1.047200e+00
1.047200e+00
1.047200e+00
1.079920e+00
1.079920e+00
1.079920e+00
1.079920e+00
1.112650e+00
1.112650e+00
1.112650e+00
1.112650e+00
1.145370e+00
1.145370e+00
1.145370e+00
1.145370e+00
1.178100e+00
1.178100e+00
1.178100e+00
1.178100e+00
1.210820e+00
1.210820e+00
1.210820e+00
1.210820e+00
1.243550e+00
1.243550e+00
1.243550e+00
1.243550e+00
1.276270e+00
1.276270e+00
1.276270e+00
1.276270e+00
1.309000e+00
1.309000e+00
1.309000e+00
1.309000e+00
1.341720e+00
1.341720e+00
1.341720e+00
1.341720e+00
1.374450e+00
1.374450e+00
1.374450e+00
1.374450e+00
1.407170e+00
1.407170e+00
1.407170e+00
1.407170e+00
1.439900e+00
1.439900e+00
1.439900e+00
1.439900e+00
1.472620e+00
1.472620e+00
1.472620e+00
1.472620e+00
1.505350e+00
1.505350e+00
1.505350e+00
1.505350e+00
1.538070e+00
1.538070e+00
1.538070e+00
1.538070e+00
1.570800e+00
1.570800e+00
</DataArray>
</PointData>
</Piece></UnstructuredGrid>
</VTKFile>
