<?xml version="1.0"?>
<VTKFile type="UnstructuredGrid" version="0.1" byte_order="LittleEndian" compressor="vtkZLibDataCompressor">
<UnstructuredGrid>
<Piece NumberOfPoints="192" NumberOfCells="48">
<Points>
<DataArray type="Float32" NumberOfComponents="3" format="ascii">
0.000000e+00 8.808780e-01 0.000000e+00
0.000000e+00 9.800000e-01 0.000000e+00
3.011990e-02 8.807330e-01 0.000000e+00
3.213630e-02 9.800000e-01 0.000000e+00
3.011990e-02 8.807330e-01 0.000000e+00
3.213630e-02 9.800000e-01 0.000000e+00
6.006010e-02 8.801740e-01 0.000000e+00
6.432830e-02 9.800000e-01 0.000000e+00
6.006010e-02 8.801740e-01 0.000000e+00
6.432830e-02 9.800000e-01 0.000000e+00
8.988860e-02 8.790580e-01 0.000000e+00
9.650370e-02 9.794010e-01 0.000000e+00
8.988860e-02 8.790580e-01 0.000000e+00
9.650370e-02 9.794010e-01 0.000000e+00
1.194070e-01 8.771560e-01 0.000000e+00
1.287590e-01 9.772590e-01 0.000000e+00
1.194070e-01 8.771560e-01 0.000000e+00
1.287590e-01 9.772590e-01 0.000000e+00
1.486750e-01 8.743300e-01 0.000000e+00
1.610660e-01 9.740320e-01 0.000000e+00
1.486750e-01 8.743300e-01 0.000000e+00
1.610660e-01 9.740320e-01 0.000000e+00
1.777330e-01 8.705140e-01 0.000000e+00
1.933430e-01 9.696930e-01 0.000000e+00
1.777330e-01 8.705140e-01 0.000000e+00
1.933430e-01 9.696930e-01 0.000000e+00
2.065800e-01 8.656880e-01 0.000000e+00
2.255170e-01 9.642190e-01 0.000000e+00
2.065800e-01 8.656880e-01 0.000000e+00
2.255170e-01 9.642190e-01 0.000000e+00
2.351960e-01 8.598420e-01 0.000000e+00
2.575220e-01 9.575950e-01 0.000000e+00
2.351960e-01 8.598420e-01 0.000000e+00
2.575220e-01 9.575950e-01 0.000000e+00
2.635570e-01 8.529690e-01 0.000000e+00
2.892980e-01 9.498180e-01 0.000000e+00
2.635570e-01 8.529690e-01 0.000000e+00
2.892980e-01 9.498180e-01 0.000000e+00
2.916380e-01 8.450720e-01 0.000000e+00
3.207910e-01 9.408920e-01 0.000000e+00
2.916380e-01 8.450720e-01 0.000000e+00
3.207910e-01 9.408920e-01 0.000000e+00
3.194070e-01 8.361580e-01 0.000000e+00
3.519520e-01 9.308260e-01 0.000000e+00
3.194070e-01 8.361580e-01 0.000000e+00
3.519520e-01 9.308260e-01 0.000000e+00
3.468360e-01 8.262360e-01 0.000000e+00
3.827320e-01 9.196370e-01 0.000000e+00
3.468360e-01 8.262360e-01 0.000000e+00
3.827320e-01 9.196370e-01 0.000000e+00
3.738930e-01 8.153220e-01 0.000000e+00
4.130900e-01 9.073440e-01 0.000000e+00
3.738930e-01 8.153220e-01 0.000000e+00
4.130900e-01 9.073440e-01 0.000000e+00
4.005500e-01 8.034330e-01 0.000000e+00
4.429860e-01 8.939690e-01 0.000000e+00
4.005500e-01 8.034330e-01 0.000000e+00
4.429860e-01 8.939690e-01 0.000000e+00
4.267750e-01 7.905890e-01 0.000000e+00
4.723810e-01 8.795370e-01 0.000000e+00
4.267750e-01 7.905890e-01 0.000000e+00
4.723810e-01 8.795370e-01 0.000000e+00
4.525400e-01 7.768110e-01 0.000000e+00
5.012420e-01 8.640740e-01 0.000000e+00
4.525400e-01 7.768110e-01 0.000000e+00
5.012420e-01 8.640740e-01 0.000000e+00
4.778170e-01 7.621230e-01 0.000000e+00
5.295350e-01 8.476070e-01 0.000000e+00
4.778170e-01 7.621230e-01 0.000000e+00
5.295350e-01 8.476070e-01 0.000000e+00
5.025780e-01 7.465470e-01 0.000000e+00
5.572300e-01 8.301650e-01 0.000000e+00
5.025780e-01 7.465470e-01 0.000000e+00
5.572300e-01 8.301650e-01 0.000000e+00
5.267970e-01 7.301090e-01 0.000000e+00
5.842990e-01 8.117750e-01 0.000000e+00
5.267970e-01 7.301090e-01 0.000000e+00
5.842990e-01 8.117750e-01 0.000000e+00
5.504470e-01 7.128340e-01 0.000000e+00
6.107130e-01 7.924680e-01 0.000000e+00
5.504470e-01 7.128340e-01 0.000000e+00
6.107130e-01 7.924680e-01 0.000000e+00
5.735030e-01 6.947480e-01 0.000000e+00
6.364470e-01 7.722710e-01 0.000000e+00
5.735030e-01 6.947480e-01 0.000000e+00
6.364470e-01 7.722710e-01 0.000000e+00
5.959420e-01 6.758760e-01 0.000000e+00
6.614760e-01 7.512130e-01 0.000000e+00
5.959420e-01 6.758760e-01 0.000000e+00
6.614760e-01 7.512130e-01 0.000000e+00
6.177390e-01 6.562460e-01 0.000000e+00
6.857760e-01 7.293250e-01 0.000000e+00
6.177390e-01 6.562460e-01 0.000000e+00
6.857760e-01 7.293250e-01 0.000000e+00
6.388730e-01 6.358840e-01 0.000000e+00
7.093240e-01 7.066330e-01 0.000000e+00
6.388730e-01 6.358840e-01 0.000000e+00
7.093240e-01 7.066330e-01 0.000000e+00
6.593210e-01 6.148170e-01 0.000000e+00
7.320970e-01 6.831690e-01 0.000000e+00
6.593210e-01 6.148170e-01 0.000000e+00
7.320970e-01 6.831690e-01 0.000000e+00
6.790630e-01 5.930700e-01 0.000000e+00
7.540740e-01 6.589600e-01 0.000000e+00
6.790630e-01 5.930700e-01 0.000000e+00
7.540740e-01 6.589600e-01 0.000000e+00
6.980780e-01 5.706720e-01 0.000000e+00
7.752340e-01 6.340360e-01 0.000000e+00
6.980780e-01 5.706720e-01 0.000000e+00
7.752340e-01 6.340360e-01 0.000000e+00
7.163470e-01 5.476500e-01 0.000000e+00
7.955560e-01 6.084270e-01 0.000000e+00
7.163470e-01 5.476500e-01 0.000000e+00
7.955560e-01 6.084270e-01 0.000000e+00
7.338500e-01 5.240310e-01 0.000000e+00
8.150220e-01 5.821610e-01 0.000000e+00
7.338500e-01 5.240310e-01 0.000000e+00
8.150220e-01 5.821610e-01 0.000000e+00
7.505700e-01 4.998420e-01 0.000000e+00
8.336130e-01 5.552690e-01 0.000000e+00
7.505700e-01 4.998420e-01 0.000000e+00
8.336130e-01 5.552690e-01 0.000000e+00
7.664890e-01 4.751120e-01 0.000000e+00
8.513090e-01 5.277800e-01 0.000000e+00
7.664890e-01 4.751120e-01 0.000000e+00
8.513090e-01 5.277800e-01 0.000000e+00
7.815900e-01 4.498680e-01 0.000000e+00
8.680950e-01 4.997250e-01 0.000000e+00
7.815900e-01 4.498680e-01 0.000000e+00
8.680950e-01 4.997250e-01 0.000000e+00
7.958590e-01 4.241380e-01 0.000000e+00
8.839520e-01 4.711350e-01 0.000000e+00
7.958590e-01 4.241380e-01 0.000000e+00
8.839520e-01 4.711350e-01 0.000000e+00
8.092800e-01 3.979520e-01 0.000000e+00
8.988650e-01 4.420400e-01 0.000000e+00
8.092800e-01 3.979520e-01 0.000000e+00
8.988650e-01 4.420400e-01 0.000000e+00
8.218380e-01 3.713380e-01 0.000000e+00
9.128190e-01 4.124730e-01 0.000000e+00
8.218380e-01 3.713380e-01 0.000000e+00
9.128190e-01 4.124730e-01 0.000000e+00
8.335210e-01 3.443250e-01 0.000000e+00
9.257990e-01 3.824640e-01 0.000000e+00
8.335210e-01 3.443250e-01 0.000000e+00
9.257990e-01 3.824640e-01 0.000000e+00
8.443160e-01 3.169420e-01 0.000000e+00
9.377930e-01 3.520460e-01 0.000000e+00
8.443160e-01 3.169420e-01 0.000000e+00
9.377930e-01 3.520460e-01 0.000000e+00
8.542120e-01 2.892200e-01 0.000000e+00
9.487870e-01 3.212520e-01 0.000000e+00
8.542120e-01 2.892200e-01 0.000000e+00
9.487870e-01 3.212520e-01 0.000000e+00
8.631980e-01 2.611870e-01 0.000000e+00
9.587690e-01 2.901140e-01 0.000000e+00
8.631980e-01 2.611870e-01 0.000000e+00
9.587690e-01 2.901140e-01 0.000000e+00
8.712640e-01 2.328750e-01 0.000000e+00
9.677300e-01 2.586660e-01 0.000000e+00
8.712640e-01 2.328750e-01 0.000000e+00
9.677300e-01 2.586660e-01 0.000000e+00
8.784020e-01 2.043140e-01 0.000000e+00
9.756600e-01 2.269420e-01 0.000000e+00
8.784020e-01 2.043140e-01 0.000000e+00
9.756600e-01 2.269420e-01 0.000000e+00
8.846040e-01 1.755340e-01 0.000000e+00
9.825490e-01 1.949750e-01 0.000000e+00
8.846040e-01 1.755340e-01 0.000000e+00
9.825490e-01 1.949750e-01 0.000000e+00
8.898640e-01 1.465660e-01 0.000000e+00
9.883920e-01 1.627990e-01 0.000000e+00
8.898640e-01 1.465660e-01 0.000000e+00
9.883920e-01 1.627990e-01 0.000000e+00
8.941750e-01 1.174410e-01 0.000000e+00
9.931810e-01 1.304480e-01 0.000000e+00
8.941750e-01 1.174410e-01 0.000000e+00
9.931810e-01 1.304480e-01 0.000000e+00
8.975320e-01 8.819110e-02 0.000000e+00
9.969110e-01 9.795870e-02 0.000000e+00
8.975320e-01 8.819110e-02 0.000000e+00
9.969110e-01 9.795870e-02 0.000000e+00
8.999330e-01 5.884650e-02 0.000000e+00
9.995780e-01 6.536410e-02 0.000000e+00
8.999330e-01 5.884650e-02 0.000000e+00
9.995780e-01 6.536410e-02 0.000000e+00
9.013750e-01 2.943900e-02 0.000000e+00
1.001180e+00 3.269960e-02 0.000000e+00
9.013750e-01 2.943900e-02 0.000000e+00
1.001180e+00 3.269960e-02 0.000000e+00
9.018560e-01 4.416020e-12 0.000000e+00
1.001710e+00 4.904980e-12 0.000000e+00
</DataArray>
</Points>
<Cells>
<DataArray type="Int32" Name="connectivity" format="ascii">
0 1 3 2
4 5 7 6
8 9 11 10
12 13 15 14
16 17 19 18
20 21 23 22
24 25 27 26
28 29 31 30
32 33 35 34
36 37 39 38
40 41 43 42
44 45 47 46
48 49 51 50
52 53 55 54
56 57 59 58
60 61 63 62
64 65 67 66
68 69 71 70
72 73 75 74
76 77 79 78
80 81 83 82
84 85 87 86
88 89 91 90
92 93 95 94
96 97 99 98
100 101 103 102
104 105 107 106
108 109 111 110
112 113 115 114
116 117 119 118
120 121 123 122
124 125 127 126
128 129 131 130
132 133 135 134
136 137 139 138
140 141 143 142
144 145 147 146
148 149 151 150
152 153 155 154
156 157 159 158
160 161 163 162
164 165 167 166
168 169 171 170
172 173 175 174
176 177 179 178
180 181 183 182
184 185 187 186
188 189 191 190
</DataArray>
<DataArray type="Int32" Name="offsets" format="ascii">
4
8
12
16
20
24
28
32
36
40
44
48
52
56
60
64
68
72
76
80
84
88
92
96
100
104
108
112
116
120
124
128
132
136
140
144
148
152
156
160
164
168
172
176
180
184
188
192
</DataArray>
<DataArray type="UInt8" Name="types" format="ascii">
9
9
9
9
9
9
9
9
9
9
9
9
9
9
9
9
9
9
9
9
9
9
9
9
9
9
9
9
9
9
9
9
9
9
9
9
9
9
9
9
9
9
9
9
9
9
9
9
</DataArray>
</Cells>
<PointData>
<DataArray type="Float32" Name="V1" format="ascii">
4.806320e-01
-8.719630e-01
5.018970e-01
-8.506980e-01
3.861480e-01
-7.482320e-01
4.519760e-01
-6.824040e-01
2.383220e-01
-4.490120e-01
3.083210e-01
-3.790140e-01
1.790690e-01
-2.733590e-01
1.861750e-01
-2.662540e-01
1.153750e-01
-2.013590e-01
1.198280e-01
-1.969070e-01
6.723250e-02
-1.476330e-01
7.248860e-02
-1.423770e-01
3.304250e-02
-1.054020e-01
3.865090e-02
-9.979390e-02
8.902220e-03
-7.196070e-02
1.447560e-02
-6.638730e-02
-7.830550e-03
-4.554660e-02
-2.489240e-03
-4.020530e-02
-1.897320e-02
-2.481900e-02
-1.397250e-02
-1.981830e-02
-2.586390e-02
-8.726890e-03
-2.126680e-02
-4.129830e-03
-2.953170e-02
3.574080e-03
-2.537190e-02
7.733840e-03
-3.078570e-02
1.277670e-02
-2.707520e-02
1.648720e-02
-3.026780e-02
1.945820e-02
-2.700230e-02
2.272370e-02
-2.848860e-02
2.410370e-02
-2.565180e-02
2.694040e-02
-2.585230e-02
2.712190e-02
-2.341980e-02
2.955430e-02
-2.267700e-02
2.885660e-02
-2.061870e-02
3.091490e-02
-1.920950e-02
2.959630e-02
-1.749210e-02
3.131370e-02
-1.563860e-02
2.958120e-02
-1.422720e-02
3.099250e-02
-1.210490e-02
2.900970e-02
-1.096470e-02
3.014990e-02
-8.710510e-03
2.804440e-02
-7.807500e-03
2.894740e-02
-5.525990e-03
2.681660e-02
-4.827910e-03
2.751470e-02
-2.596850e-03
2.543120e-02
-2.073600e-03
2.595440e-02
5.110060e-05
2.397030e-02
4.271420e-04
2.434640e-02
2.407360e-03
2.249720e-02
2.661170e-03
2.275100e-02
4.473000e-03
2.105910e-02
4.626850e-03
2.121300e-02
6.257620e-03
1.969020e-02
6.331140e-03
1.976370e-02
7.776860e-03
1.841370e-02
7.787160e-03
1.842400e-02
9.050430e-03
1.724430e-02
9.012200e-03
1.720610e-02
1.010050e-02
1.618990e-02
1.002620e-02
1.611560e-02
1.095030e-02
1.525270e-02
1.085050e-02
1.515290e-02
1.162350e-02
1.443100e-02
1.150680e-02
1.431430e-02
1.214320e-02
1.372010e-02
1.201670e-02
1.359360e-02
1.253140e-02
1.311300e-02
1.240080e-02
1.298250e-02
1.280890e-02
1.260140e-02
1.267870e-02
1.247120e-02
1.299490e-02
1.217590e-02
1.286850e-02
1.204960e-02
1.310670e-02
1.182710e-02
1.298670e-02
1.170710e-02
1.316010e-02
1.154530e-02
1.304830e-02
1.143350e-02
1.316880e-02
1.132100e-02
1.306660e-02
1.121880e-02
1.314500e-02
1.114550e-02
1.305320e-02
1.105370e-02
1.309940e-02
1.101050e-02
1.301830e-02
1.092950e-02
1.304070e-02
1.090860e-02
1.297080e-02
1.083860e-02
1.297680e-02
1.083300e-02
1.291790e-02
1.077410e-02
1.291360e-02
1.077800e-02
1.286570e-02
1.073010e-02
1.285640e-02
1.073890e-02
1.281930e-02
1.070190e-02
1.280880e-02
1.071160e-02
1.278250e-02
1.068530e-02
1.277390e-02
1.069340e-02
1.275820e-02
1.067760e-02
1.275340e-02
1.068210e-02
1.274810e-02
1.067690e-02
</DataArray>
<DataArray type="Float32" Name="V2" format="ascii">
8.808780e-01
9.800000e-01
8.812470e-01
9.805270e-01
8.812470e-01
9.805270e-01
8.822180e-01
9.821090e-01
8.822180e-01
9.821090e-01
8.836360e-01
9.841440e-01
8.836360e-01
9.841440e-01
8.852380e-01
9.857050e-01
8.852380e-01
9.857050e-01
8.868700e-01
9.872590e-01
8.868700e-01
9.872590e-01
8.884610e-01
9.887800e-01
8.884610e-01
9.887800e-01
8.899830e-01
9.902400e-01
8.899830e-01
9.902400e-01
8.914160e-01
9.916170e-01
8.914160e-01
9.916170e-01
8.927470e-01
9.928980e-01
8.927470e-01
9.928980e-01
8.939680e-01
9.940740e-01
8.939680e-01
9.940740e-01
8.950760e-01
9.951410e-01
8.950760e-01
9.951410e-01
8.960710e-01
9.960990e-01
8.960710e-01
9.960990e-01
8.969560e-01
9.969520e-01
8.969560e-01
9.969520e-01
8.977360e-01
9.977040e-01
8.977360e-01
9.977040e-01
8.984180e-01
9.983610e-01
8.984180e-01
9.983610e-01
8.990090e-01
9.989310e-01
8.990090e-01
9.989310e-01
8.995160e-01
9.994200e-01
8.995160e-01
9.994200e-01
8.999490e-01
9.998370e-01
8.999490e-01
9.998370e-01
9.003140e-01
1.000190e+00
9.003140e-01
1.000190e+00
9.006200e-01
1.000490e+00
9.006200e-01
1.000490e+00
9.008740e-01
1.000730e+00
9.008740e-01
1.000730e+00
9.010820e-01
1.000930e+00
9.010820e-01
1.000930e+00
9.012520e-01
1.001100e+00
9.012520e-01
1.001100e+00
9.013890e-01
1.001230e+00
9.013890e-01
1.001230e+00
9.014990e-01
1.001340e+00
9.014990e-01
1.001340e+00
9.015850e-01
1.001430e+00
9.015850e-01
1.001430e+00
9.016530e-01
1.001490e+00
9.016530e-01
1.001490e+00
9.017040e-01
1.001540e+00
9.017040e-01
1.001540e+00
9.017440e-01
1.001580e+00
9.017440e-01
1.001580e+00
9.017730e-01
1.001610e+00
9.017730e-01
1.001610e+00
9.017950e-01
1.001640e+00
9.017950e-01
1.001640e+00
9.018110e-01
1.001650e+00
9.018110e-01
1.001650e+00
9.018220e-01
1.001670e+00
9.018220e-01
1.001670e+00
9.018300e-01
1.001680e+00
9.018300e-01
1.001680e+00
9.018360e-01
1.001680e+00
9.018360e-01
1.001680e+00
9.018400e-01
1.001690e+00
9.018400e-01
1.001690e+00
9.018430e-01
1.001690e+00
9.018430e-01
1.001690e+00
9.018460e-01
1.001700e+00
9.018460e-01
1.001700e+00
9.018480e-01
1.001700e+00
9.018480e-01
1.001700e+00
9.018490e-01
1.001700e+00
9.018490e-01
1.001700e+00
9.018510e-01
1.001710e+00
9.018510e-01
1.001710e+00
9.018520e-01
1.001710e+00
9.018520e-01
1.001710e+00
9.018530e-01
1.001710e+00
9.018530e-01
1.001710e+00
9.018540e-01
1.001710e+00
9.018540e-01
1.001710e+00
9.018550e-01
1.001710e+00
9.018550e-01
1.001710e+00
9.018550e-01
1.001710e+00
9.018550e-01
1.001710e+00
9.018560e-01
1.001710e+00
9.018560e-01
1.001710e+00
9.018560e-01
1.001710e+00
</DataArray>
<DataArray type="Float32" Name="V3" format="ascii">
0.000000e+00
0.000000e+00
1.287020e-03
5.441980e-05
1.287020e-03
5.441980e-05
2.365340e-03
9.549410e-05
2.365340e-03
9.549410e-05
3.293010e-03
4.090270e-05
3.293010e-03
4.090270e-05
3.893680e-03
9.947100e-05
3.893680e-03
9.947100e-05
4.264740e-03
2.496220e-04
4.264740e-03
2.496220e-04
4.489520e-03
4.505750e-04
4.489520e-03
4.505750e-04
4.605840e-03
6.747470e-04
4.605840e-03
6.747470e-04
4.638090e-03
9.031640e-04
4.638090e-03
9.031640e-04
4.604780e-03
1.123360e-03
4.604780e-03
1.123360e-03
4.520790e-03
1.327290e-03
4.520790e-03
1.327290e-03
4.398350e-03
1.509950e-03
4.398350e-03
1.509950e-03
4.247540e-03
1.668490e-03
4.247540e-03
1.668490e-03
4.076680e-03
1.801610e-03
4.076680e-03
1.801610e-03
3.892580e-03
1.909160e-03
3.892580e-03
1.909160e-03
3.700810e-03
1.991830e-03
3.700810e-03
1.991830e-03
3.505810e-03
2.050890e-03
3.505810e-03
2.050890e-03
3.311120e-03
2.088010e-03
3.311120e-03
2.088010e-03
3.119470e-03
2.105130e-03
3.119470e-03
2.105130e-03
2.932910e-03
2.104310e-03
2.932910e-03
2.104310e-03
2.752920e-03
2.087640e-03
2.752920e-03
2.087640e-03
2.580520e-03
2.057200e-03
2.580520e-03
2.057200e-03
2.416300e-03
2.014950e-03
2.416300e-03
2.014950e-03
2.260570e-03
1.962760e-03
2.260570e-03
1.962760e-03
2.113350e-03
1.902330e-03
2.113350e-03
1.902330e-03
1.974480e-03
1.835190e-03
1.974480e-03
1.835190e-03
1.843630e-03
1.762720e-03
1.843630e-03
1.762720e-03
1.720360e-03
1.686130e-03
1.720360e-03
1.686130e-03
1.604150e-03
1.606450e-03
1.604150e-03
1.606450e-03
1.494450e-03
1.524580e-03
1.494450e-03
1.524580e-03
1.390670e-03
1.441240e-03
1.390670e-03
1.441240e-03
1.292220e-03
1.357070e-03
1.292220e-03
1.357070e-03
1.198500e-03
1.272540e-03
1.198500e-03
1.272540e-03
1.108960e-03
1.188050e-03
1.108960e-03
1.188050e-03
1.023070e-03
1.103900e-03
1.023070e-03
1.103900e-03
9.403330e-04
1.020310e-03
9.403330e-04
1.020310e-03
8.602960e-04
9.374360e-04
8.602960e-04
9.374360e-04
7.825470e-04
8.553680e-04
7.825470e-04
8.553680e-04
7.067190e-04
7.741570e-04
7.067190e-04
7.741570e-04
6.324860e-04
6.938130e-04
6.324860e-04
6.938130e-04
5.595620e-04
6.143160e-04
5.595620e-04
6.143160e-04
4.877010e-04
5.356180e-04
4.877010e-04
5.356180e-04
4.166900e-04
4.576540e-04
4.166900e-04
4.576540e-04
3.463490e-04
3.803400e-04
3.463490e-04
3.803400e-04
2.765220e-04
3.035840e-04
2.765220e-04
3.035840e-04
2.070800e-04
2.272830e-04
2.070800e-04
2.272830e-04
1.379100e-04
1.513270e-04
1.379100e-04
1.513270e-04
6.891260e-05
7.560510e-05
6.891260e-05
7.560510e-05
0.000000e+00
0.000000e+00
</DataArray>
<DataArray type="Float32" Name="V4" format="ascii">
9.000000e-01
1.000000e+00
9.000000e-01
1.000000e+00
9.000000e-01
1.000000e+00
9.000000e-01
1.000000e+00
9.000000e-01
1.000000e+00
9.000000e-01
1.000000e+00
9.000000e-01
1.000000e+00
9.000000e-01
1.000000e+00
9.000000e-01
1.000000e+00
9.000000e-01
1.000000e+00
9.000000e-01
1.000000e+00
9.000000e-01
1.000000e+00
9.000000e-01
1.000000e+00
9.000000e-01
1.000000e+00
9.000000e-01
1.000000e+00
9.000000e-01
1.000000e+00
9.000000e-01
1.000000e+00
9.000000e-01
1.000000e+00
9.000000e-01
1.000000e+00
9.000000e-01
1.000000e+00
9.000000e-01
1.000000e+00
9.000000e-01
1.000000e+00
9.000000e-01
1.000000e+00
9.000000e-01
1.000000e+00
9.000000e-01
1.000000e+00
9.000000e-01
1.000000e+00
9.000000e-01
1.000000e+00
9.000000e-01
1.000000e+00
9.000000e-01
1.000000e+00
9.000000e-01
1.000000e+00
9.000000e-01
1.000000e+00
9.000000e-01
1.000000e+00
9.000000e-01
1.000000e+00
9.000000e-01
1.000000e+00
9.000000e-01
1.000000e+00
9.000000e-01
1.000000e+00
9.000000e-01
1.000000e+00
9.000000e-01
1.000000e+00
9.000000e-01
1.000000e+00
9.000000e-01
1.000000e+00
9.000000e-01
1.000000e+00
9.000000e-01
1.000000e+00
9.000000e-01
1.000000e+00
9.000000e-01
1.000000e+00
9.000000e-01
1.000000e+00
9.000000e-01
1.000000e+00
9.000000e-01
1.000000e+00
9.000000e-01
1.000000e+00
9.000000e-01
1.000000e+00
9.000000e-01
1.000000e+00
9.000000e-01
1.000000e+00
9.000000e-01
1.000000e+00
9.000000e-01
1.000000e+00
9.000000e-01
1.000000e+00
9.000000e-01
1.000000e+00
9.000000e-01
1.000000e+00
9.000000e-01
1.000000e+00
9.000000e-01
1.000000e+00
9.000000e-01
1.000000e+00
9.000000e-01
1.000000e+00
9.000000e-01
1.000000e+00
9.000000e-01
1.000000e+00
9.000000e-01
1.000000e+00
9.000000e-01
1.000000e+00
9.000000e-01
1.000000e+00
9.000000e-01
1.000000e+00
9.000000e-01
1.000000e+00
9.000000e-01
1.000000e+00
9.000000e-01
1.000000e+00
9.000000e-01
1.000000e+00
9.000000e-01
1.000000e+00
9.000000e-01
1.000000e+00
9.000000e-01
1.000000e+00
9.000000e-01
1.000000e+00
9.000000e-01
1.000000e+00
9.000000e-01
1.000000e+00
9.000000e-01
1.000000e+00
9.000000e-01
1.000000e+00
9.000000e-01
1.000000e+00
9.000000e-01
1.000000e+00
9.000000e-01
1.000000e+00
9.000000e-01
1.000000e+00
9.000000e-01
1.000000e+00
9.000000e-01
1.000000e+00
9.000000e-01
1.000000e+00
9.000000e-01
1.000000e+00
9.000000e-01
1.000000e+00
9.000000e-01
1.000000e+00
9.000000e-01
1.000000e+00
9.000000e-01
1.000000e+00
9.000000e-01
1.000000e+00
9.000000e-01
1.000000e+00
9.000000e-01
1.000000e+00
9.000000e-01
1.000000e+00
9.000000e-01
1.000000e+00
9.000000e-01
1.000000e+00
</DataArray>
<DataArray type="Float32" Name="V5" format="ascii">
0.000000e+00
0.000000e+00
3.272490e-02
3.272490e-02
3.272490e-02
3.272490e-02
6.544980e-02
6.544980e-02
6.544980e-02
6.544980e-02
9.817480e-02
9.817480e-02
9.817480e-02
9.817480e-02
1.309000e-01
1.309000e-01
1.309000e-01
1.309000e-01
1.636250e-01
1.636250e-01
1.636250e-01
1.636250e-01
1.963500e-01
1.963500e-01
1.963500e-01
1.963500e-01
2.290740e-01
2.290740e-01
2.290740e-01
2.290740e-01
2.617990e-01
2.617990e-01
2.617990e-01
2.617990e-01
2.945240e-01
2.945240e-01
2.945240e-01
2.945240e-01
3.272490e-01
3.272490e-01
3.272490e-01
3.272490e-01
3.599740e-01
3.599740e-01
3.599740e-01
3.599740e-01
3.926990e-01
3.926990e-01
3.926990e-01
3.926990e-01
4.254240e-01
4.254240e-01
4.254240e-01
4.254240e-01
4.581490e-01
4.581490e-01
4.581490e-01
4.581490e-01
4.908740e-01
4.908740e-01
4.908740e-01
4.908740e-01
5.235990e-01
5.235990e-01
5.235990e-01
5.235990e-01
5.563240e-01
5.563240e-01
5.563240e-01
5.563240e-01
5.890490e-01
5.890490e-01
5.890490e-01
5.890490e-01
6.217740e-01
6.217740e-01
6.217740e-01
6.217740e-01
6.544980e-01
6.544980e-01
6.544980e-01
6.544980e-01
6.872230e-01
6.872230e-01
6.872230e-01
6.872230e-01
7.199480e-01
7.199480e-01
7.199480e-01
7.199480e-01
7.526730e-01
7.526730e-01
7.526730e-01
7.526730e-01
7.853980e-01
7.853980e-01
7.853980e-01
7.853980e-01
8.181230e-01
8.181230e-01
8.181230e-01
8.181230e-01
8.508480e-01
8.508480e-01
8.508480e-01
8.508480e-01
8.835730e-01
8.835730e-01
8.835730e-01
8.835730e-01
9.162980e-01
9.162980e-01
9.162980e-01
9.162980e-01
9.490230e-01
9.490230e-01
9.490230e-01
9.490230e-01
9.817480e-01
9.817480e-01
9.817480e-01
9.817480e-01
1.014470e+00
1.014470e+00
1.014470e+00
1.014470e+00
1.047200e+00
1.047200e+00
1.047200e+00
1.047200e+00
1.079920e+00
1.079920e+00
1.079920e+00
1.079920e+00
1.112650e+00
1.112650e+00
1.112650e+00
1.112650e+00
1.145370e+00
1.145370e+00
1.145370e+00
1.145370e+00
1.178100e+00
1.178100e+00
1.178100e+00
1.178100e+00
1.210820e+00
1.210820e+00
1.210820e+00
1.210820e+00
1.243550e+00
1.243550e+00
1.243550e+00
1.243550e+00
1.276270e+00
1.276270e+00
1.276270e+00
1.276270e+00
1.309000e+00
1.309000e+00
1.309000e+00
1.309000e+00
1.341720e+00
1.341720e+00
1.341720e+00
1.341720e+00
1.374450e+00
1.374450e+00
1.374450e+00
1.374450e+00
1.407170e+00
1.407170e+00
1.407170e+00
1.407170e+00
1.439900e+00
1.439900e+00
1.439900e+00
1.439900e+00
1.472620e+00
1.472620e+00
1.472620e+00
1.472620e+00
1.505350e+00
1.505350e+00
1.505350e+00
1.505350e+00
1.538070e+00
1.538070e+00
1.538070e+00
1.538070e+00
1.570800e+00
1.570800e+00
</DataArray>
</PointData>
</Piece></UnstructuredGrid>
</VTKFile>
