<?xml version="1.0"?>
<VTKFile type="UnstructuredGrid" version="0.1" byte_order="LittleEndian" compressor="vtkZLibDataCompressor">
<UnstructuredGrid>
<Piece NumberOfPoints="192" NumberOfCells="48">
<Points>
<DataArray type="Float32" NumberOfComponents="3" format="ascii">
0.000000e+00 3.991410e-01 0.000000e+00
0.000000e+00 4.500000e-01 0.000000e+00
4.362070e-02 3.991500e-01 0.000000e+00
4.360950e-02 4.500000e-01 0.000000e+00
4.362070e-02 3.991500e-01 0.000000e+00
4.360950e-02 4.500000e-01 0.000000e+00
8.724120e-02 3.991770e-01 0.000000e+00
8.721880e-02 4.500000e-01 0.000000e+00
8.724120e-02 3.991770e-01 0.000000e+00
8.721880e-02 4.500000e-01 0.000000e+00
1.308610e-01 3.992210e-01 0.000000e+00
1.308280e-01 4.500000e-01 0.000000e+00
1.308610e-01 3.992210e-01 0.000000e+00
1.308280e-01 4.500000e-01 0.000000e+00
1.744810e-01 3.992840e-01 0.000000e+00
1.744360e-01 4.500000e-01 0.000000e+00
1.744810e-01 3.992840e-01 0.000000e+00
1.744360e-01 4.500000e-01 0.000000e+00
2.181000e-01 3.993640e-01 0.000000e+00
2.180440e-01 4.500000e-01 0.000000e+00
2.181000e-01 3.993640e-01 0.000000e+00
2.180440e-01 4.500000e-01 0.000000e+00
2.617170e-01 3.994610e-01 0.000000e+00
2.616500e-01 4.500000e-01 0.000000e+00
2.617170e-01 3.994610e-01 0.000000e+00
2.616500e-01 4.500000e-01 0.000000e+00
3.053310e-01 3.995760e-01 0.000000e+00
3.052530e-01 4.500000e-01 0.000000e+00
3.053310e-01 3.995760e-01 0.000000e+00
3.052530e-01 4.500000e-01 0.000000e+00
3.489440e-01 3.997080e-01 0.000000e+00
3.488560e-01 4.500000e-01 0.000000e+00
3.489440e-01 3.997080e-01 0.000000e+00
3.488560e-01 4.500000e-01 0.000000e+00
3.925550e-01 3.998570e-01 0.000000e+00
3.924560e-01 4.500000e-01 0.000000e+00
3.925550e-01 3.998570e-01 0.000000e+00
3.924560e-01 4.500000e-01 0.000000e+00
4.361630e-01 4.000230e-01 0.000000e+00
4.360530e-01 4.500000e-01 0.000000e+00
4.361630e-01 4.000230e-01 0.000000e+00
4.360530e-01 4.500000e-01 0.000000e+00
4.797670e-01 4.002060e-01 0.000000e+00
4.796470e-01 4.500000e-01 0.000000e+00
4.797670e-01 4.002060e-01 0.000000e+00
4.796470e-01 4.500000e-01 0.000000e+00
5.233670e-01 4.004060e-01 0.000000e+00
5.232370e-01 4.500000e-01 0.000000e+00
5.233670e-01 4.004060e-01 0.000000e+00
5.232370e-01 4.500000e-01 0.000000e+00
5.669620e-01 4.006210e-01 0.000000e+00
5.668210e-01 4.500000e-01 0.000000e+00
5.669620e-01 4.006210e-01 0.000000e+00
5.668210e-01 4.500000e-01 0.000000e+00
6.105510e-01 4.008530e-01 0.000000e+00
6.104010e-01 4.500000e-01 0.000000e+00
6.105510e-01 4.008530e-01 0.000000e+00
6.104010e-01 4.500000e-01 0.000000e+00
6.541330e-01 4.011010e-01 0.000000e+00
6.539730e-01 4.500000e-01 0.000000e+00
6.541330e-01 4.011010e-01 0.000000e+00
6.539730e-01 4.500000e-01 0.000000e+00
6.977070e-01 4.013640e-01 0.000000e+00
6.975380e-01 4.500000e-01 0.000000e+00
6.977070e-01 4.013640e-01 0.000000e+00
6.975380e-01 4.500000e-01 0.000000e+00
7.412720e-01 4.016420e-01 0.000000e+00
7.410940e-01 4.500000e-01 0.000000e+00
7.412720e-01 4.016420e-01 0.000000e+00
7.410940e-01 4.500000e-01 0.000000e+00
7.848260e-01 4.019340e-01 0.000000e+00
7.846400e-01 4.500000e-01 0.000000e+00
7.848260e-01 4.019340e-01 0.000000e+00
7.846400e-01 4.500000e-01 0.000000e+00
8.283690e-01 4.022420e-01 0.000000e+00
8.281730e-01 4.500000e-01 0.000000e+00
8.283690e-01 4.022420e-01 0.000000e+00
8.281730e-01 4.500000e-01 0.000000e+00
8.718960e-01 4.025630e-01 0.000000e+00
8.716920e-01 4.500000e-01 0.000000e+00
8.718960e-01 4.025630e-01 0.000000e+00
8.716920e-01 4.500000e-01 0.000000e+00
9.154090e-01 4.028970e-01 0.000000e+00
9.151970e-01 4.500000e-01 0.000000e+00
9.154090e-01 4.028970e-01 0.000000e+00
9.151970e-01 4.500000e-01 0.000000e+00
9.589040e-01 4.032450e-01 0.000000e+00
9.586840e-01 4.500000e-01 0.000000e+00
9.589040e-01 4.032450e-01 0.000000e+00
9.586840e-01 4.500000e-01 0.000000e+00
1.002380e+00 4.036060e-01 0.000000e+00
1.002150e+00 4.500000e-01 0.000000e+00
1.002380e+00 4.036060e-01 0.000000e+00
1.002150e+00 4.500000e-01 0.000000e+00
1.045830e+00 4.039790e-01 0.000000e+00
1.045600e+00 4.500000e-01 0.000000e+00
1.045830e+00 4.039790e-01 0.000000e+00
1.045600e+00 4.500000e-01 0.000000e+00
1.089260e+00 4.043640e-01 0.000000e+00
1.089020e+00 4.500000e-01 0.000000e+00
1.089260e+00 4.043640e-01 0.000000e+00
1.089020e+00 4.500000e-01 0.000000e+00
1.132650e+00 4.047610e-01 0.000000e+00
1.132410e+00 4.500000e-01 0.000000e+00
1.132650e+00 4.047610e-01 0.000000e+00
1.132410e+00 4.500000e-01 0.000000e+00
1.176010e+00 4.051700e-01 0.000000e+00
1.175780e+00 4.500000e-01 0.000000e+00
1.176010e+00 4.051700e-01 0.000000e+00
1.175780e+00 4.500000e-01 0.000000e+00
1.219320e+00 4.055920e-01 0.000000e+00
1.219140e+00 4.500000e-01 0.000000e+00
1.219320e+00 4.055920e-01 0.000000e+00
1.219140e+00 4.500000e-01 0.000000e+00
1.262550e+00 4.060300e-01 0.000000e+00
1.262520e+00 4.500000e-01 0.000000e+00
1.262550e+00 4.060300e-01 0.000000e+00
1.262520e+00 4.500000e-01 0.000000e+00
1.305620e+00 4.064800e-01 0.000000e+00
1.306000e+00 4.500000e-01 0.000000e+00
1.305620e+00 4.064800e-01 0.000000e+00
1.306000e+00 4.500000e-01 0.000000e+00
1.348280e+00 4.068880e-01 0.000000e+00
1.349750e+00 4.500000e-01 0.000000e+00
1.348280e+00 4.068880e-01 0.000000e+00
1.349750e+00 4.500000e-01 0.000000e+00
1.390080e+00 4.069450e-01 0.000000e+00
1.393840e+00 4.500000e-01 0.000000e+00
1.390080e+00 4.069450e-01 0.000000e+00
1.393840e+00 4.500000e-01 0.000000e+00
1.430720e+00 4.053900e-01 0.000000e+00
1.437090e+00 4.490610e-01 0.000000e+00
1.430720e+00 4.053900e-01 0.000000e+00
1.437090e+00 4.490610e-01 0.000000e+00
1.469930e+00 4.001770e-01 0.000000e+00
1.479460e+00 4.428790e-01 0.000000e+00
1.469930e+00 4.001770e-01 0.000000e+00
1.479460e+00 4.428790e-01 0.000000e+00
1.507700e+00 3.906790e-01 0.000000e+00
1.521200e+00 4.317930e-01 0.000000e+00
1.507700e+00 3.906790e-01 0.000000e+00
1.521200e+00 4.317930e-01 0.000000e+00
1.544020e+00 3.770080e-01 0.000000e+00
1.561570e+00 4.160670e-01 0.000000e+00
1.544020e+00 3.770080e-01 0.000000e+00
1.561570e+00 4.160670e-01 0.000000e+00
1.578590e+00 3.594220e-01 0.000000e+00
1.599950e+00 3.960430e-01 0.000000e+00
1.578590e+00 3.594220e-01 0.000000e+00
1.599950e+00 3.960430e-01 0.000000e+00
1.611130e+00 3.382090e-01 0.000000e+00
1.635950e+00 3.720910e-01 0.000000e+00
1.611130e+00 3.382090e-01 0.000000e+00
1.635950e+00 3.720910e-01 0.000000e+00
1.641320e+00 3.137040e-01 0.000000e+00
1.669220e+00 3.446190e-01 0.000000e+00
1.641320e+00 3.137040e-01 0.000000e+00
1.669220e+00 3.446190e-01 0.000000e+00
1.668940e+00 2.862270e-01 0.000000e+00
1.699530e+00 3.140020e-01 0.000000e+00
1.668940e+00 2.862270e-01 0.000000e+00
1.699530e+00 3.140020e-01 0.000000e+00
1.693750e+00 2.561330e-01 0.000000e+00
1.726650e+00 2.806400e-01 0.000000e+00
1.693750e+00 2.561330e-01 0.000000e+00
1.726650e+00 2.806400e-01 0.000000e+00
1.715590e+00 2.237430e-01 0.000000e+00
1.750460e+00 2.448840e-01 0.000000e+00
1.715590e+00 2.237430e-01 0.000000e+00
1.750460e+00 2.448840e-01 0.000000e+00
1.734290e+00 1.894130e-01 0.000000e+00
1.770790e+00 2.071180e-01 0.000000e+00
1.734290e+00 1.894130e-01 0.000000e+00
1.770790e+00 2.071180e-01 0.000000e+00
1.749750e+00 1.534540e-01 0.000000e+00
1.787560e+00 1.676700e-01 0.000000e+00
1.749750e+00 1.534540e-01 0.000000e+00
1.787560e+00 1.676700e-01 0.000000e+00
1.761860e+00 1.162170e-01 0.000000e+00
1.800680e+00 1.269090e-01 0.000000e+00
1.761860e+00 1.162170e-01 0.000000e+00
1.800680e+00 1.269090e-01 0.000000e+00
1.770560e+00 7.800560e-02 0.000000e+00
1.810090e+00 8.514600e-02 0.000000e+00
1.770560e+00 7.800560e-02 0.000000e+00
1.810090e+00 8.514600e-02 0.000000e+00
1.775800e+00 3.916540e-02 0.000000e+00
1.815760e+00 4.273980e-02 0.000000e+00
1.775800e+00 3.916540e-02 0.000000e+00
1.815760e+00 4.273980e-02 0.000000e+00
1.777550e+00 -6.529320e-06 0.000000e+00
1.817650e+00 -6.676590e-06 0.000000e+00
</DataArray>
</Points>
<Cells>
<DataArray type="Int32" Name="connectivity" format="ascii">
0 1 3 2
4 5 7 6
8 9 11 10
12 13 15 14
16 17 19 18
20 21 23 22
24 25 27 26
28 29 31 30
32 33 35 34
36 37 39 38
40 41 43 42
44 45 47 46
48 49 51 50
52 53 55 54
56 57 59 58
60 61 63 62
64 65 67 66
68 69 71 70
72 73 75 74
76 77 79 78
80 81 83 82
84 85 87 86
88 89 91 90
92 93 95 94
96 97 99 98
100 101 103 102
104 105 107 106
108 109 111 110
112 113 115 114
116 117 119 118
120 121 123 122
124 125 127 126
128 129 131 130
132 133 135 134
136 137 139 138
140 141 143 142
144 145 147 146
148 149 151 150
152 153 155 154
156 157 159 158
160 161 163 162
164 165 167 166
168 169 171 170
172 173 175 174
176 177 179 178
180 181 183 182
184 185 187 186
188 189 191 190
</DataArray>
<DataArray type="Int32" Name="offsets" format="ascii">
4
8
12
16
20
24
28
32
36
40
44
48
52
56
60
64
68
72
76
80
84
88
92
96
100
104
108
112
116
120
124
128
132
136
140
144
148
152
156
160
164
168
172
176
180
184
188
192
</DataArray>
<DataArray type="UInt8" Name="types" format="ascii">
9
9
9
9
9
9
9
9
9
9
9
9
9
9
9
9
9
9
9
9
9
9
9
9
9
9
9
9
9
9
9
9
9
9
9
9
9
9
9
9
9
9
9
9
9
9
9
9
</DataArray>
</Cells>
<PointData>
<DataArray type="Float32" Name="V1" format="ascii">
7.774850e+00
4.276410e+00
7.778280e+00
4.279840e+00
7.779360e+00
4.279180e+00
7.787640e+00
4.287460e+00
7.789780e+00
4.286080e+00
7.803930e+00
4.300230e+00
7.806920e+00
4.297930e+00
7.826910e+00
4.317930e+00
7.830790e+00
4.314750e+00
7.856640e+00
4.340590e+00
7.861440e+00
4.336540e+00
7.893160e+00
4.368250e+00
7.898910e+00
4.363320e+00
7.936540e+00
4.400960e+00
7.943260e+00
4.395150e+00
7.986860e+00
4.438750e+00
7.994560e+00
4.432050e+00
8.044200e+00
4.481690e+00
8.052900e+00
4.474090e+00
8.108650e+00
4.529840e+00
8.118380e+00
4.521310e+00
8.180330e+00
4.583260e+00
8.191120e+00
4.573800e+00
8.259360e+00
4.642040e+00
8.271220e+00
4.631610e+00
8.345860e+00
4.706250e+00
8.358830e+00
4.694840e+00
8.439980e+00
4.776000e+00
8.454100e+00
4.763580e+00
8.541900e+00
4.851380e+00
8.557190e+00
4.837930e+00
8.651770e+00
4.932510e+00
8.668270e+00
4.917990e+00
8.769800e+00
5.019510e+00
8.787550e+00
5.003890e+00
8.896170e+00
5.112510e+00
8.915220e+00
5.095750e+00
9.031120e+00
5.211650e+00
9.051520e+00
5.193720e+00
9.174880e+00
5.317090e+00
9.196660e+00
5.297940e+00
9.327700e+00
5.428980e+00
9.350910e+00
5.408580e+00
9.489840e+00
5.547510e+00
9.514550e+00
5.525820e+00
9.661590e+00
5.672870e+00
9.687820e+00
5.649860e+00
9.843230e+00
5.805270e+00
9.870960e+00
5.780960e+00
1.003500e+01
5.945000e+00
1.006400e+01
5.919590e+00
1.023690e+01
6.092530e+00
1.026640e+01
6.066770e+00
1.044850e+01
6.248890e+00
1.047550e+01
6.225300e+00
1.066710e+01
6.416910e+00
1.068270e+01
6.403160e+00
1.088430e+01
6.604710e+00
1.086340e+01
6.622760e+00
1.107610e+01
6.835500e+00
1.095230e+01
6.942860e+00
1.118110e+01
7.171650e+00
1.080820e+01
7.495920e+00
1.107140e+01
7.759060e+00
1.031080e+01
8.447880e+00
1.061190e+01
8.749000e+00
9.974060e+00
9.300690e+00
1.021860e+01
9.545220e+00
9.977180e+00
9.753280e+00
1.021600e+01
9.992090e+00
1.014510e+01
1.005480e+01
1.037970e+01
1.028930e+01
1.037810e+01
1.029120e+01
1.060480e+01
1.051790e+01
1.063060e+01
1.049540e+01
1.084630e+01
1.071110e+01
1.088180e+01
1.068020e+01
1.108360e+01
1.088210e+01
1.112100e+01
1.084940e+01
1.130680e+01
1.103520e+01
1.134260e+01
1.100400e+01
1.151040e+01
1.117170e+01
1.154310e+01
1.114310e+01
1.169130e+01
1.129130e+01
1.172010e+01
1.126620e+01
1.184740e+01
1.139350e+01
1.187180e+01
1.137220e+01
1.197720e+01
1.147760e+01
1.199700e+01
1.146040e+01
1.207980e+01
1.154320e+01
1.209480e+01
1.153010e+01
1.215430e+01
1.158960e+01
1.216430e+01
1.158090e+01
1.220020e+01
1.161680e+01
1.220520e+01
1.161240e+01
1.221720e+01
1.162440e+01
</DataArray>
<DataArray type="Float32" Name="V2" format="ascii">
3.991410e-01
4.500000e-01
4.003640e-01
4.511860e-01
4.003640e-01
4.511860e-01
4.040280e-01
4.547410e-01
4.040280e-01
4.547410e-01
4.101260e-01
4.606560e-01
4.101260e-01
4.606560e-01
4.186420e-01
4.689190e-01
4.186420e-01
4.689190e-01
4.295570e-01
4.795080e-01
4.295570e-01
4.795080e-01
4.428440e-01
4.923990e-01
4.428440e-01
4.923990e-01
4.584710e-01
5.075600e-01
4.584710e-01
5.075600e-01
4.764010e-01
5.249570e-01
4.764010e-01
5.249570e-01
4.965920e-01
5.445470e-01
4.965920e-01
5.445470e-01
5.189940e-01
5.662830e-01
5.189940e-01
5.662830e-01
5.435530e-01
5.901130e-01
5.435530e-01
5.901130e-01
5.702100e-01
6.159800e-01
5.702100e-01
6.159800e-01
5.989010e-01
6.438200e-01
5.989010e-01
6.438200e-01
6.295540e-01
6.735660e-01
6.295540e-01
6.735660e-01
6.620950e-01
7.051450e-01
6.620950e-01
7.051450e-01
6.964450e-01
7.384810e-01
6.964450e-01
7.384810e-01
7.325170e-01
7.734890e-01
7.325170e-01
7.734890e-01
7.702230e-01
8.100840e-01
7.702230e-01
8.100840e-01
8.094670e-01
8.481740e-01
8.094670e-01
8.481740e-01
8.501510e-01
8.876610e-01
8.501510e-01
8.876610e-01
8.921730e-01
9.284490e-01
8.921730e-01
9.284490e-01
9.354250e-01
9.704320e-01
9.354250e-01
9.704320e-01
9.797960e-01
1.013500e+00
9.797960e-01
1.013500e+00
1.025170e+00
1.057550e+00
1.025170e+00
1.057550e+00
1.071430e+00
1.102450e+00
1.071430e+00
1.102450e+00
1.118450e+00
1.148100e+00
1.118450e+00
1.148100e+00
1.166110e+00
1.194370e+00
1.166110e+00
1.194370e+00
1.214260e+00
1.241150e+00
1.214260e+00
1.241150e+00
1.262770e+00
1.288350e+00
1.262770e+00
1.288350e+00
1.311410e+00
1.335910e+00
1.311410e+00
1.335910e+00
1.359830e+00
1.383840e+00
1.359830e+00
1.383840e+00
1.407320e+00
1.432100e+00
1.407320e+00
1.432100e+00
1.452880e+00
1.479080e+00
1.452880e+00
1.479080e+00
1.495330e+00
1.522770e+00
1.495330e+00
1.522770e+00
1.534550e+00
1.563810e+00
1.534550e+00
1.563810e+00
1.570770e+00
1.601920e+00
1.570770e+00
1.601920e+00
1.604020e+00
1.636910e+00
1.604020e+00
1.636910e+00
1.634340e+00
1.668730e+00
1.634340e+00
1.668730e+00
1.661710e+00
1.697380e+00
1.661710e+00
1.697380e+00
1.686150e+00
1.722890e+00
1.686150e+00
1.722890e+00
1.707670e+00
1.745280e+00
1.707670e+00
1.745280e+00
1.726270e+00
1.764600e+00
1.726270e+00
1.764600e+00
1.741980e+00
1.780880e+00
1.741980e+00
1.780880e+00
1.754810e+00
1.794150e+00
1.754810e+00
1.794150e+00
1.764770e+00
1.804450e+00
1.764770e+00
1.804450e+00
1.771870e+00
1.811790e+00
1.771870e+00
1.811790e+00
1.776130e+00
1.816180e+00
1.776130e+00
1.816180e+00
1.777550e+00
1.817650e+00
</DataArray>
<DataArray type="Float32" Name="V3" format="ascii">
0.000000e+00
0.000000e+00
3.053750e-02
2.886260e-02
3.053750e-02
2.886260e-02
6.094700e-02
5.760060e-02
6.094700e-02
5.760060e-02
9.110070e-02
8.609000e-02
9.110070e-02
8.609000e-02
1.208710e-01
1.142070e-01
1.208710e-01
1.142070e-01
1.501320e-01
1.418280e-01
1.501320e-01
1.418280e-01
1.787570e-01
1.688310e-01
1.787570e-01
1.688310e-01
2.066210e-01
1.950950e-01
2.066210e-01
1.950950e-01
2.336020e-01
2.205000e-01
2.336020e-01
2.205000e-01
2.595790e-01
2.449290e-01
2.595790e-01
2.449290e-01
2.844330e-01
2.682640e-01
2.844330e-01
2.682640e-01
3.080440e-01
2.903920e-01
3.080440e-01
2.903920e-01
3.302990e-01
3.112000e-01
3.302990e-01
3.112000e-01
3.510860e-01
3.305790e-01
3.510860e-01
3.305790e-01
3.702930e-01
3.484220e-01
3.702930e-01
3.484220e-01
3.878160e-01
3.646240e-01
3.878160e-01
3.646240e-01
4.035500e-01
3.790860e-01
4.035500e-01
3.790860e-01
4.173960e-01
3.917080e-01
4.173960e-01
3.917080e-01
4.292560e-01
4.023970e-01
4.292560e-01
4.023970e-01
4.390400e-01
4.110630e-01
4.390400e-01
4.110630e-01
4.466570e-01
4.176180e-01
4.466570e-01
4.176180e-01
4.520250e-01
4.219800e-01
4.520250e-01
4.219800e-01
4.550640e-01
4.240720e-01
4.550640e-01
4.240720e-01
4.556980e-01
4.238180e-01
4.556980e-01
4.238180e-01
4.538580e-01
4.211510e-01
4.538580e-01
4.211510e-01
4.494770e-01
4.160050e-01
4.494770e-01
4.160050e-01
4.424950e-01
4.083230e-01
4.424950e-01
4.083230e-01
4.328540e-01
3.980540e-01
4.328540e-01
3.980540e-01
4.204990e-01
3.851560e-01
4.204990e-01
3.851560e-01
4.053690e-01
3.696070e-01
4.053690e-01
3.696070e-01
3.873850e-01
3.514130e-01
3.873850e-01
3.514130e-01
3.664580e-01
3.306200e-01
3.664580e-01
3.306200e-01
3.426140e-01
3.072040e-01
3.426140e-01
3.072040e-01
3.169180e-01
2.814070e-01
3.169180e-01
2.814070e-01
2.912200e-01
2.571400e-01
2.912200e-01
2.571400e-01
2.663880e-01
2.345110e-01
2.663880e-01
2.345110e-01
2.425580e-01
2.131860e-01
2.425580e-01
2.131860e-01
2.196780e-01
1.929270e-01
2.196780e-01
1.929270e-01
1.976150e-01
1.735090e-01
1.976150e-01
1.735090e-01
1.762580e-01
1.547710e-01
1.762580e-01
1.547710e-01
1.554740e-01
1.365620e-01
1.554740e-01
1.365620e-01
1.351710e-01
1.187770e-01
1.351710e-01
1.187770e-01
1.152450e-01
1.013130e-01
1.152450e-01
1.013130e-01
9.562810e-02
8.410500e-02
9.562810e-02
8.410500e-02
7.624120e-02
6.708160e-02
7.624120e-02
6.708160e-02
5.703790e-02
5.020260e-02
5.703790e-02
5.020260e-02
3.795560e-02
3.341570e-02
3.795560e-02
3.341570e-02
1.896070e-02
1.669550e-02
1.896070e-02
1.669550e-02
0.000000e+00
0.000000e+00
</DataArray>
<DataArray type="Float32" Name="V4" format="ascii">
9.000000e-01
1.000000e+00
9.000000e-01
1.000000e+00
9.000000e-01
1.000000e+00
9.000000e-01
1.000000e+00
9.000000e-01
1.000000e+00
9.000000e-01
1.000000e+00
9.000000e-01
1.000000e+00
9.000000e-01
1.000000e+00
9.000000e-01
1.000000e+00
9.000000e-01
1.000000e+00
9.000000e-01
1.000000e+00
9.000000e-01
1.000000e+00
9.000000e-01
1.000000e+00
9.000000e-01
1.000000e+00
9.000000e-01
1.000000e+00
9.000000e-01
1.000000e+00
9.000000e-01
1.000000e+00
9.000000e-01
1.000000e+00
9.000000e-01
1.000000e+00
9.000000e-01
1.000000e+00
9.000000e-01
1.000000e+00
9.000000e-01
1.000000e+00
9.000000e-01
1.000000e+00
9.000000e-01
1.000000e+00
9.000000e-01
1.000000e+00
9.000000e-01
1.000000e+00
9.000000e-01
1.000000e+00
9.000000e-01
1.000000e+00
9.000000e-01
1.000000e+00
9.000000e-01
1.000000e+00
9.000000e-01
1.000000e+00
9.000000e-01
1.000000e+00
9.000000e-01
1.000000e+00
9.000000e-01
1.000000e+00
9.000000e-01
1.000000e+00
9.000000e-01
1.000000e+00
9.000000e-01
1.000000e+00
9.000000e-01
1.000000e+00
9.000000e-01
1.000000e+00
9.000000e-01
1.000000e+00
9.000000e-01
1.000000e+00
9.000000e-01
1.000000e+00
9.000000e-01
1.000000e+00
9.000000e-01
1.000000e+00
9.000000e-01
1.000000e+00
9.000000e-01
1.000000e+00
9.000000e-01
1.000000e+00
9.000000e-01
1.000000e+00
9.000000e-01
1.000000e+00
9.000000e-01
1.000000e+00
9.000000e-01
1.000000e+00
9.000000e-01
1.000000e+00
9.000000e-01
1.000000e+00
9.000000e-01
1.000000e+00
9.000000e-01
1.000000e+00
9.000000e-01
1.000000e+00
9.000000e-01
1.000000e+00
9.000000e-01
1.000000e+00
9.000000e-01
1.000000e+00
9.000000e-01
1.000000e+00
9.000000e-01
1.000000e+00
9.000000e-01
1.000000e+00
9.000000e-01
1.000000e+00
9.000000e-01
1.000000e+00
9.000000e-01
1.000000e+00
9.000000e-01
1.000000e+00
9.000000e-01
1.000000e+00
9.000000e-01
1.000000e+00
9.000000e-01
1.000000e+00
9.000000e-01
1.000000e+00
9.000000e-01
1.000000e+00
9.000000e-01
1.000000e+00
9.000000e-01
1.000000e+00
9.000000e-01
1.000000e+00
9.000000e-01
1.000000e+00
9.000000e-01
1.000000e+00
9.000000e-01
1.000000e+00
9.000000e-01
1.000000e+00
9.000000e-01
1.000000e+00
9.000000e-01
1.000000e+00
9.000000e-01
1.000000e+00
9.000000e-01
1.000000e+00
9.000000e-01
1.000000e+00
9.000000e-01
1.000000e+00
9.000000e-01
1.000000e+00
9.000000e-01
1.000000e+00
9.000000e-01
1.000000e+00
9.000000e-01
1.000000e+00
9.000000e-01
1.000000e+00
9.000000e-01
1.000000e+00
9.000000e-01
1.000000e+00
9.000000e-01
1.000000e+00
9.000000e-01
1.000000e+00
9.000000e-01
1.000000e+00
9.000000e-01
1.000000e+00
9.000000e-01
1.000000e+00
</DataArray>
<DataArray type="Float32" Name="V5" format="ascii">
0.000000e+00
0.000000e+00
3.272490e-02
3.272490e-02
3.272490e-02
3.272490e-02
6.544980e-02
6.544980e-02
6.544980e-02
6.544980e-02
9.817480e-02
9.817480e-02
9.817480e-02
9.817480e-02
1.309000e-01
1.309000e-01
1.309000e-01
1.309000e-01
1.636250e-01
1.636250e-01
1.636250e-01
1.636250e-01
1.963500e-01
1.963500e-01
1.963500e-01
1.963500e-01
2.290740e-01
2.290740e-01
2.290740e-01
2.290740e-01
2.617990e-01
2.617990e-01
2.617990e-01
2.617990e-01
2.945240e-01
2.945240e-01
2.945240e-01
2.945240e-01
3.272490e-01
3.272490e-01
3.272490e-01
3.272490e-01
3.599740e-01
3.599740e-01
3.599740e-01
3.599740e-01
3.926990e-01
3.926990e-01
3.926990e-01
3.926990e-01
4.254240e-01
4.254240e-01
4.254240e-01
4.254240e-01
4.581490e-01
4.581490e-01
4.581490e-01
4.581490e-01
4.908740e-01
4.908740e-01
4.908740e-01
4.908740e-01
5.235990e-01
5.235990e-01
5.235990e-01
5.235990e-01
5.563240e-01
5.563240e-01
5.563240e-01
5.563240e-01
5.890490e-01
5.890490e-01
5.890490e-01
5.890490e-01
6.217740e-01
6.217740e-01
6.217740e-01
6.217740e-01
6.544980e-01
6.544980e-01
6.544980e-01
6.544980e-01
6.872230e-01
6.872230e-01
6.872230e-01
6.872230e-01
7.199480e-01
7.199480e-01
7.199480e-01
7.199480e-01
7.526730e-01
7.526730e-01
7.526730e-01
7.526730e-01
7.853980e-01
7.853980e-01
7.853980e-01
7.853980e-01
8.181230e-01
8.181230e-01
8.181230e-01
8.181230e-01
8.508480e-01
8.508480e-01
8.508480e-01
8.508480e-01
8.835730e-01
8.835730e-01
8.835730e-01
8.835730e-01
9.162980e-01
9.162980e-01
9.162980e-01
9.162980e-01
9.490230e-01
9.490230e-01
9.490230e-01
9.490230e-01
9.817480e-01
9.817480e-01
9.817480e-01
9.817480e-01
1.014470e+00
1.014470e+00
1.014470e+00
1.014470e+00
1.047200e+00
1.047200e+00
1.047200e+00
1.047200e+00
1.079920e+00
1.079920e+00
1.079920e+00
1.079920e+00
1.112650e+00
1.112650e+00
1.112650e+00
1.112650e+00
1.145370e+00
1.145370e+00
1.145370e+00
1.145370e+00
1.178100e+00
1.178100e+00
1.178100e+00
1.178100e+00
1.210820e+00
1.210820e+00
1.210820e+00
1.210820e+00
1.243550e+00
1.243550e+00
1.243550e+00
1.243550e+00
1.276270e+00
1.276270e+00
1.276270e+00
1.276270e+00
1.309000e+00
1.309000e+00
1.309000e+00
1.309000e+00
1.341720e+00
1.341720e+00
1.341720e+00
1.341720e+00
1.374450e+00
1.374450e+00
1.374450e+00
1.374450e+00
1.407170e+00
1.407170e+00
1.407170e+00
1.407170e+00
1.439900e+00
1.439900e+00
1.439900e+00
1.439900e+00
1.472620e+00
1.472620e+00
1.472620e+00
1.472620e+00
1.505350e+00
1.505350e+00
1.505350e+00
1.505350e+00
1.538070e+00
1.538070e+00
1.538070e+00
1.538070e+00
1.570800e+00
1.570800e+00
</DataArray>
</PointData>
</Piece></UnstructuredGrid>
</VTKFile>
