<?xml version="1.0"?>
<VTKFile type="UnstructuredGrid" version="0.1" byte_order="LittleEndian" compressor="vtkZLibDataCompressor">
<UnstructuredGrid>
<Piece NumberOfPoints="192" NumberOfCells="48">
<Points>
<DataArray type="Float32" NumberOfComponents="3" format="ascii">
0.000000e+00 5.795230e-01 0.000000e+00
0.000000e+00 6.700000e-01 0.000000e+00
3.272050e-02 5.795360e-01 0.000000e+00
3.268850e-02 6.700000e-01 0.000000e+00
3.272050e-02 5.795360e-01 0.000000e+00
3.268850e-02 6.700000e-01 0.000000e+00
6.543940e-02 5.795750e-01 0.000000e+00
6.537540e-02 6.700000e-01 0.000000e+00
6.543940e-02 5.795750e-01 0.000000e+00
6.537540e-02 6.700000e-01 0.000000e+00
9.815500e-02 5.796410e-01 0.000000e+00
9.805910e-02 6.700000e-01 0.000000e+00
9.815500e-02 5.796410e-01 0.000000e+00
9.805910e-02 6.700000e-01 0.000000e+00
1.308660e-01 5.797320e-01 0.000000e+00
1.307380e-01 6.700000e-01 0.000000e+00
1.308660e-01 5.797320e-01 0.000000e+00
1.307380e-01 6.700000e-01 0.000000e+00
1.635700e-01 5.798500e-01 0.000000e+00
1.634100e-01 6.700000e-01 0.000000e+00
1.635700e-01 5.798500e-01 0.000000e+00
1.634100e-01 6.700000e-01 0.000000e+00
1.962650e-01 5.799940e-01 0.000000e+00
1.960740e-01 6.700000e-01 0.000000e+00
1.962650e-01 5.799940e-01 0.000000e+00
1.960740e-01 6.700000e-01 0.000000e+00
2.289500e-01 5.801640e-01 0.000000e+00
2.287270e-01 6.700000e-01 0.000000e+00
2.289500e-01 5.801640e-01 0.000000e+00
2.287270e-01 6.700000e-01 0.000000e+00
2.616240e-01 5.803600e-01 0.000000e+00
2.613690e-01 6.700000e-01 0.000000e+00
2.616240e-01 5.803600e-01 0.000000e+00
2.613690e-01 6.700000e-01 0.000000e+00
2.942860e-01 5.805820e-01 0.000000e+00
2.939970e-01 6.700000e-01 0.000000e+00
2.942860e-01 5.805820e-01 0.000000e+00
2.939970e-01 6.700000e-01 0.000000e+00
3.269330e-01 5.808300e-01 0.000000e+00
3.266100e-01 6.700000e-01 0.000000e+00
3.269330e-01 5.808300e-01 0.000000e+00
3.266100e-01 6.700000e-01 0.000000e+00
3.595660e-01 5.811060e-01 0.000000e+00
3.592060e-01 6.700000e-01 0.000000e+00
3.595660e-01 5.811060e-01 0.000000e+00
3.592060e-01 6.700000e-01 0.000000e+00
3.921830e-01 5.814090e-01 0.000000e+00
3.917840e-01 6.700000e-01 0.000000e+00
3.921830e-01 5.814090e-01 0.000000e+00
3.917840e-01 6.700000e-01 0.000000e+00
4.247830e-01 5.817450e-01 0.000000e+00
4.243470e-01 6.700000e-01 0.000000e+00
4.247830e-01 5.817450e-01 0.000000e+00
4.243470e-01 6.700000e-01 0.000000e+00
4.573630e-01 5.821200e-01 0.000000e+00
4.569020e-01 6.700000e-01 0.000000e+00
4.573630e-01 5.821200e-01 0.000000e+00
4.569020e-01 6.700000e-01 0.000000e+00
4.899110e-01 5.825440e-01 0.000000e+00
4.894700e-01 6.700000e-01 0.000000e+00
4.899110e-01 5.825440e-01 0.000000e+00
4.894700e-01 6.700000e-01 0.000000e+00
5.223960e-01 5.830280e-01 0.000000e+00
5.220930e-01 6.700000e-01 0.000000e+00
5.223960e-01 5.830280e-01 0.000000e+00
5.220930e-01 6.700000e-01 0.000000e+00
5.547500e-01 5.835740e-01 0.000000e+00
5.548460e-01 6.700000e-01 0.000000e+00
5.547500e-01 5.835740e-01 0.000000e+00
5.548460e-01 6.700000e-01 0.000000e+00
5.868330e-01 5.841400e-01 0.000000e+00
5.878460e-01 6.700000e-01 0.000000e+00
5.868330e-01 5.841400e-01 0.000000e+00
5.878460e-01 6.700000e-01 0.000000e+00
6.184100e-01 5.845680e-01 0.000000e+00
6.212240e-01 6.700000e-01 0.000000e+00
6.184100e-01 5.845680e-01 0.000000e+00
6.212240e-01 6.700000e-01 0.000000e+00
6.492080e-01 5.844420e-01 0.000000e+00
6.550330e-01 6.700000e-01 0.000000e+00
6.492080e-01 5.844420e-01 0.000000e+00
6.550330e-01 6.700000e-01 0.000000e+00
6.793780e-01 5.832510e-01 0.000000e+00
6.889310e-01 6.690490e-01 0.000000e+00
6.793780e-01 5.832510e-01 0.000000e+00
6.889310e-01 6.690490e-01 0.000000e+00
7.086520e-01 5.803780e-01 0.000000e+00
7.229270e-01 6.650130e-01 0.000000e+00
7.086520e-01 5.803780e-01 0.000000e+00
7.229270e-01 6.650130e-01 0.000000e+00
7.371600e-01 5.754800e-01 0.000000e+00
7.568490e-01 6.584450e-01 0.000000e+00
7.371600e-01 5.754800e-01 0.000000e+00
7.568490e-01 6.584450e-01 0.000000e+00
7.649860e-01 5.684260e-01 0.000000e+00
7.903300e-01 6.492760e-01 0.000000e+00
7.649860e-01 5.684260e-01 0.000000e+00
7.903300e-01 6.492760e-01 0.000000e+00
7.921060e-01 5.592300e-01 0.000000e+00
8.230540e-01 6.375550e-01 0.000000e+00
7.921060e-01 5.592300e-01 0.000000e+00
8.230540e-01 6.375550e-01 0.000000e+00
8.184590e-01 5.479590e-01 0.000000e+00
8.547700e-01 6.234110e-01 0.000000e+00
8.184590e-01 5.479590e-01 0.000000e+00
8.547700e-01 6.234110e-01 0.000000e+00
8.439700e-01 5.347130e-01 0.000000e+00
8.852970e-01 6.070190e-01 0.000000e+00
8.439700e-01 5.347130e-01 0.000000e+00
8.852970e-01 6.070190e-01 0.000000e+00
8.685670e-01 5.196110e-01 0.000000e+00
9.145090e-01 5.885760e-01 0.000000e+00
8.685670e-01 5.196110e-01 0.000000e+00
9.145090e-01 5.885760e-01 0.000000e+00
8.921840e-01 5.027830e-01 0.000000e+00
9.423260e-01 5.682740e-01 0.000000e+00
8.921840e-01 5.027830e-01 0.000000e+00
9.423260e-01 5.682740e-01 0.000000e+00
9.147640e-01 4.843620e-01 0.000000e+00
9.687000e-01 5.462980e-01 0.000000e+00
9.147640e-01 4.843620e-01 0.000000e+00
9.687000e-01 5.462980e-01 0.000000e+00
9.362590e-01 4.644790e-01 0.000000e+00
9.936070e-01 5.228220e-01 0.000000e+00
9.362590e-01 4.644790e-01 0.000000e+00
9.936070e-01 5.228220e-01 0.000000e+00
9.566380e-01 4.432540e-01 0.000000e+00
1.017040e+00 4.979920e-01 0.000000e+00
9.566380e-01 4.432540e-01 0.000000e+00
1.017040e+00 4.979920e-01 0.000000e+00
9.758600e-01 4.208170e-01 0.000000e+00
1.039000e+00 4.719600e-01 0.000000e+00
9.758600e-01 4.208170e-01 0.000000e+00
1.039000e+00 4.719600e-01 0.000000e+00
9.939120e-01 3.972670e-01 0.000000e+00
1.059500e+00 4.448340e-01 0.000000e+00
9.939120e-01 3.972670e-01 0.000000e+00
1.059500e+00 4.448340e-01 0.000000e+00
1.010770e+00 3.727230e-01 0.000000e+00
1.078530e+00 4.167420e-01 0.000000e+00
1.010770e+00 3.727230e-01 0.000000e+00
1.078530e+00 4.167420e-01 0.000000e+00
1.026410e+00 3.472680e-01 0.000000e+00
1.096110e+00 3.877680e-01 0.000000e+00
1.026410e+00 3.472680e-01 0.000000e+00
1.096110e+00 3.877680e-01 0.000000e+00
1.040840e+00 3.210080e-01 0.000000e+00
1.112260e+00 3.580210e-01 0.000000e+00
1.040840e+00 3.210080e-01 0.000000e+00
1.112260e+00 3.580210e-01 0.000000e+00
1.054030e+00 2.940120e-01 0.000000e+00
1.126980e+00 3.275660e-01 0.000000e+00
1.054030e+00 2.940120e-01 0.000000e+00
1.126980e+00 3.275660e-01 0.000000e+00
1.065990e+00 2.663770e-01 0.000000e+00
1.140270e+00 2.965020e-01 0.000000e+00
1.065990e+00 2.663770e-01 0.000000e+00
1.140270e+00 2.965020e-01 0.000000e+00
1.076700e+00 2.381630e-01 0.000000e+00
1.152150e+00 2.648810e-01 0.000000e+00
1.076700e+00 2.381630e-01 0.000000e+00
1.152150e+00 2.648810e-01 0.000000e+00
1.086160e+00 2.094580e-01 0.000000e+00
1.162630e+00 2.327910e-01 0.000000e+00
1.086160e+00 2.094580e-01 0.000000e+00
1.162630e+00 2.327910e-01 0.000000e+00
1.094370e+00 1.803130e-01 0.000000e+00
1.171690e+00 2.002800e-01 0.000000e+00
1.094370e+00 1.803130e-01 0.000000e+00
1.171690e+00 2.002800e-01 0.000000e+00
1.101320e+00 1.508130e-01 0.000000e+00
1.179360e+00 1.674290e-01 0.000000e+00
1.101320e+00 1.508130e-01 0.000000e+00
1.179360e+00 1.674290e-01 0.000000e+00
1.107020e+00 1.210020e-01 0.000000e+00
1.185630e+00 1.342810e-01 0.000000e+00
1.107020e+00 1.210020e-01 0.000000e+00
1.185630e+00 1.342810e-01 0.000000e+00
1.111440e+00 9.096250e-02 0.000000e+00
1.190510e+00 1.009130e-01 0.000000e+00
1.111440e+00 9.096250e-02 0.000000e+00
1.190510e+00 1.009130e-01 0.000000e+00
1.114610e+00 6.073550e-02 0.000000e+00
1.193990e+00 6.736490e-02 0.000000e+00
1.114610e+00 6.073550e-02 0.000000e+00
1.193990e+00 6.736490e-02 0.000000e+00
1.116510e+00 3.039980e-02 0.000000e+00
1.196080e+00 3.371360e-02 0.000000e+00
1.116510e+00 3.039980e-02 0.000000e+00
1.196080e+00 3.371360e-02 0.000000e+00
1.117140e+00 -4.103490e-06 0.000000e+00
1.196770e+00 -4.395990e-06 0.000000e+00
</DataArray>
</Points>
<Cells>
<DataArray type="Int32" Name="connectivity" format="ascii">
0 1 3 2
4 5 7 6
8 9 11 10
12 13 15 14
16 17 19 18
20 21 23 22
24 25 27 26
28 29 31 30
32 33 35 34
36 37 39 38
40 41 43 42
44 45 47 46
48 49 51 50
52 53 55 54
56 57 59 58
60 61 63 62
64 65 67 66
68 69 71 70
72 73 75 74
76 77 79 78
80 81 83 82
84 85 87 86
88 89 91 90
92 93 95 94
96 97 99 98
100 101 103 102
104 105 107 106
108 109 111 110
112 113 115 114
116 117 119 118
120 121 123 122
124 125 127 126
128 129 131 130
132 133 135 134
136 137 139 138
140 141 143 142
144 145 147 146
148 149 151 150
152 153 155 154
156 157 159 158
160 161 163 162
164 165 167 166
168 169 171 170
172 173 175 174
176 177 179 178
180 181 183 182
184 185 187 186
188 189 191 190
</DataArray>
<DataArray type="Int32" Name="offsets" format="ascii">
4
8
12
16
20
24
28
32
36
40
44
48
52
56
60
64
68
72
76
80
84
88
92
96
100
104
108
112
116
120
124
128
132
136
140
144
148
152
156
160
164
168
172
176
180
184
188
192
</DataArray>
<DataArray type="UInt8" Name="types" format="ascii">
9
9
9
9
9
9
9
9
9
9
9
9
9
9
9
9
9
9
9
9
9
9
9
9
9
9
9
9
9
9
9
9
9
9
9
9
9
9
9
9
9
9
9
9
9
9
9
9
</DataArray>
</Cells>
<PointData>
<DataArray type="Float32" Name="V1" format="ascii">
1.467430e+00
-6.017980e-01
1.469100e+00
-6.001360e-01
1.469360e+00
-5.999670e-01
1.473270e+00
-5.960660e-01
1.473660e+00
-5.959530e-01
1.480490e+00
-5.891190e-01
1.480870e+00
-5.891540e-01
1.490590e+00
-5.794390e-01
1.491000e+00
-5.795900e-01
1.503580e+00
-5.670070e-01
1.504050e+00
-5.672630e-01
1.519510e+00
-5.518090e-01
1.520050e+00
-5.521730e-01
1.538390e+00
-5.338350e-01
1.539040e+00
-5.343240e-01
1.560280e+00
-5.130850e-01
1.561070e+00
-5.137370e-01
1.585230e+00
-4.895820e-01
1.586260e+00
-4.904650e-01
1.613330e+00
-4.633930e-01
1.614710e+00
-4.646150e-01
1.644660e+00
-4.346690e-01
1.646560e+00
-4.363660e-01
1.679230e+00
-4.036900e-01
1.681760e+00
-4.059540e-01
1.716820e+00
-3.708860e-01
1.719780e+00
-3.735110e-01
1.756570e+00
-3.367210e-01
1.758770e+00
-3.385670e-01
1.796170e+00
-3.011650e-01
1.793860e+00
-2.987450e-01
1.830450e+00
-2.621580e-01
1.814250e+00
-2.468710e-01
1.849310e+00
-2.118110e-01
1.798930e+00
-1.652900e-01
1.835960e+00
-1.282620e-01
1.713370e+00
-1.655510e-02
1.769210e+00
3.928770e-02
1.514880e+00
2.692210e-01
1.636850e+00
3.911880e-01
1.212980e+00
8.354810e-01
1.371660e+00
9.941610e-01
1.081030e+00
1.239040e+00
1.143220e+00
1.301230e+00
9.898160e-01
1.440450e+00
1.049270e+00
1.499900e+00
9.571420e-01
1.584910e+00
1.017960e+00
1.645730e+00
9.701430e-01
1.689940e+00
1.030410e+00
1.750200e+00
1.013000e+00
1.766290e+00
1.071190e+00
1.824480e+00
1.073970e+00
1.821920e+00
1.129140e+00
1.877100e+00
1.144660e+00
1.862770e+00
1.196310e+00
1.914420e+00
1.219240e+00
1.893240e+00
1.267110e+00
1.941110e+00
1.293760e+00
1.916490e+00
1.337800e+00
1.960530e+00
1.365660e+00
1.934780e+00
1.405940e+00
1.975060e+00
1.433410e+00
1.949670e+00
1.470080e+00
1.986340e+00
1.496150e+00
1.962220e+00
1.529390e+00
1.995450e+00
1.553530e+00
1.973120e+00
1.583560e+00
2.003150e+00
1.605510e+00
1.982840e+00
1.632520e+00
2.009860e+00
1.652190e+00
1.991650e+00
1.676410e+00
2.015860e+00
1.693870e+00
1.999710e+00
1.715470e+00
2.021310e+00
1.730810e+00
2.007110e+00
1.749990e+00
2.026290e+00
1.763360e+00
2.013910e+00
1.780250e+00
2.030810e+00
1.791800e+00
2.020120e+00
1.806560e+00
2.034880e+00
1.816440e+00
2.025740e+00
1.829190e+00
2.038490e+00
1.837540e+00
2.030760e+00
1.848380e+00
2.041610e+00
1.855310e+00
2.035200e+00
1.864340e+00
2.044230e+00
1.869960e+00
2.039020e+00
1.877250e+00
2.046310e+00
1.881650e+00
2.042250e+00
1.887260e+00
2.047860e+00
1.890490e+00
2.044860e+00
1.894470e+00
2.048830e+00
1.896600e+00
2.046860e+00
1.898970e+00
2.049230e+00
1.900030e+00
2.048250e+00
1.900820e+00
2.049040e+00
</DataArray>
<DataArray type="Float32" Name="V2" format="ascii">
5.795230e-01
6.700000e-01
5.802960e-01
6.707110e-01
5.802960e-01
6.707110e-01
5.826140e-01
6.728410e-01
5.826140e-01
6.728410e-01
5.864700e-01
6.763850e-01
5.864700e-01
6.763850e-01
5.918540e-01
6.813330e-01
5.918540e-01
6.813330e-01
5.987500e-01
6.876700e-01
5.987500e-01
6.876700e-01
6.071390e-01
6.953780e-01
6.071390e-01
6.953780e-01
6.169980e-01
7.044360e-01
6.169980e-01
7.044360e-01
6.282980e-01
7.148170e-01
6.282980e-01
7.148170e-01
6.410090e-01
7.264930e-01
6.410090e-01
7.264930e-01
6.550950e-01
7.394290e-01
6.550950e-01
7.394290e-01
6.705170e-01
7.535870e-01
6.705170e-01
7.535870e-01
6.872340e-01
7.689290e-01
6.872340e-01
7.689290e-01
7.052020e-01
7.854100e-01
7.052020e-01
7.854100e-01
7.243740e-01
8.029880e-01
7.243740e-01
8.029880e-01
7.447000e-01
8.216220e-01
7.447000e-01
8.216220e-01
7.661150e-01
8.412840e-01
7.661150e-01
8.412840e-01
7.885180e-01
8.619620e-01
7.885180e-01
8.619620e-01
8.117210e-01
8.836750e-01
8.117210e-01
8.836750e-01
8.353740e-01
9.064570e-01
8.353740e-01
9.064570e-01
8.588820e-01
9.303050e-01
8.588820e-01
9.303050e-01
8.818520e-01
9.542350e-01
8.818520e-01
9.542350e-01
9.035980e-01
9.766420e-01
9.035980e-01
9.766420e-01
9.239390e-01
9.979510e-01
9.239390e-01
9.979510e-01
9.428650e-01
1.017960e+00
9.428650e-01
1.017960e+00
9.604150e-01
1.036540e+00
9.604150e-01
1.036540e+00
9.766450e-01
1.053690e+00
9.766450e-01
1.053690e+00
9.916160e-01
1.069430e+00
9.916160e-01
1.069430e+00
1.005400e+00
1.083830e+00
1.005400e+00
1.083830e+00
1.018070e+00
1.096970e+00
1.018070e+00
1.096970e+00
1.029700e+00
1.108950e+00
1.029700e+00
1.108950e+00
1.040350e+00
1.119860e+00
1.040350e+00
1.119860e+00
1.050100e+00
1.129780e+00
1.050100e+00
1.129780e+00
1.059000e+00
1.138800e+00
1.059000e+00
1.138800e+00
1.067120e+00
1.146980e+00
1.067120e+00
1.146980e+00
1.074490e+00
1.154380e+00
1.074490e+00
1.154380e+00
1.081180e+00
1.161070e+00
1.081180e+00
1.161070e+00
1.087200e+00
1.167080e+00
1.087200e+00
1.167080e+00
1.092600e+00
1.172460e+00
1.092600e+00
1.172460e+00
1.097410e+00
1.177240e+00
1.097410e+00
1.177240e+00
1.101660e+00
1.181450e+00
1.101660e+00
1.181450e+00
1.105350e+00
1.185120e+00
1.105350e+00
1.185120e+00
1.108520e+00
1.188250e+00
1.108520e+00
1.188250e+00
1.111180e+00
1.190880e+00
1.111180e+00
1.190880e+00
1.113340e+00
1.193020e+00
1.113340e+00
1.193020e+00
1.115010e+00
1.194670e+00
1.115010e+00
1.194670e+00
1.116200e+00
1.195840e+00
1.116200e+00
1.195840e+00
1.116910e+00
1.196540e+00
1.116910e+00
1.196540e+00
1.117140e+00
1.196770e+00
</DataArray>
<DataArray type="Float32" Name="V3" format="ascii">
0.000000e+00
0.000000e+00
1.374110e-02
1.074920e-02
1.374110e-02
1.074920e-02
2.739330e-02
2.141530e-02
2.739330e-02
2.141530e-02
4.086770e-02
3.191540e-02
4.086770e-02
3.191540e-02
5.407580e-02
4.216670e-02
5.407580e-02
4.216670e-02
6.692980e-02
5.208720e-02
6.692980e-02
5.208720e-02
7.934260e-02
6.159560e-02
7.934260e-02
6.159560e-02
9.122790e-02
7.061090e-02
9.122790e-02
7.061090e-02
1.025020e-01
7.905430e-02
1.025020e-01
7.905430e-02
1.130800e-01
8.684720e-02
1.130800e-01
8.684720e-02
1.228810e-01
9.391270e-02
1.228810e-01
9.391270e-02
1.318250e-01
1.001760e-01
1.318250e-01
1.001760e-01
1.398340e-01
1.055640e-01
1.398340e-01
1.055640e-01
1.468290e-01
1.100090e-01
1.468290e-01
1.100090e-01
1.527310e-01
1.134500e-01
1.527310e-01
1.134500e-01
1.574530e-01
1.158380e-01
1.574530e-01
1.158380e-01
1.608940e-01
1.171460e-01
1.608940e-01
1.171460e-01
1.629280e-01
1.173710e-01
1.629280e-01
1.173710e-01
1.634020e-01
1.165440e-01
1.634020e-01
1.165440e-01
1.621740e-01
1.147000e-01
1.621740e-01
1.147000e-01
1.592660e-01
1.118030e-01
1.592660e-01
1.118030e-01
1.551560e-01
1.081110e-01
1.551560e-01
1.081110e-01
1.501230e-01
1.050520e-01
1.501230e-01
1.050520e-01
1.446330e-01
1.022890e-01
1.446330e-01
1.022890e-01
1.389890e-01
9.974030e-02
1.389890e-01
9.974030e-02
1.333160e-01
9.730510e-02
1.333160e-01
9.730510e-02
1.276700e-01
9.488440e-02
1.276700e-01
9.488440e-02
1.220710e-01
9.239390e-02
1.220710e-01
9.239390e-02
1.165150e-01
8.976900e-02
1.165150e-01
8.976900e-02
1.109910e-01
8.696410e-02
1.109910e-01
8.696410e-02
1.054830e-01
8.395030e-02
1.054830e-01
8.395030e-02
9.997450e-02
8.071260e-02
9.997450e-02
8.071260e-02
9.444750e-02
7.724520e-02
9.444750e-02
7.724520e-02
8.889220e-02
7.355250e-02
8.889220e-02
7.355250e-02
8.329520e-02
6.964040e-02
8.329520e-02
6.964040e-02
7.765220e-02
6.552270e-02
7.765220e-02
6.552270e-02
7.195500e-02
6.121070e-02
7.195500e-02
6.121070e-02
6.620440e-02
5.672190e-02
6.620440e-02
5.672190e-02
6.039620e-02
5.206910e-02
6.039620e-02
5.206910e-02
5.453520e-02
4.727120e-02
5.453520e-02
4.727120e-02
4.862000e-02
4.234080e-02
4.862000e-02
4.234080e-02
4.265800e-02
3.729660e-02
4.265800e-02
3.729660e-02
3.664980e-02
3.215080e-02
3.664980e-02
3.215080e-02
3.060440e-02
2.692160e-02
3.060440e-02
2.692160e-02
2.452380e-02
2.162030e-02
2.452380e-02
2.162030e-02
1.841790e-02
1.626470e-02
1.841790e-02
1.626470e-02
1.228960e-02
1.086570e-02
1.228960e-02
1.086570e-02
6.149200e-03
5.440600e-03
6.149200e-03
5.440600e-03
0.000000e+00
0.000000e+00
</DataArray>
<DataArray type="Float32" Name="V4" format="ascii">
9.000000e-01
1.000000e+00
9.000000e-01
1.000000e+00
9.000000e-01
1.000000e+00
9.000000e-01
1.000000e+00
9.000000e-01
1.000000e+00
9.000000e-01
1.000000e+00
9.000000e-01
1.000000e+00
9.000000e-01
1.000000e+00
9.000000e-01
1.000000e+00
9.000000e-01
1.000000e+00
9.000000e-01
1.000000e+00
9.000000e-01
1.000000e+00
9.000000e-01
1.000000e+00
9.000000e-01
1.000000e+00
9.000000e-01
1.000000e+00
9.000000e-01
1.000000e+00
9.000000e-01
1.000000e+00
9.000000e-01
1.000000e+00
9.000000e-01
1.000000e+00
9.000000e-01
1.000000e+00
9.000000e-01
1.000000e+00
9.000000e-01
1.000000e+00
9.000000e-01
1.000000e+00
9.000000e-01
1.000000e+00
9.000000e-01
1.000000e+00
9.000000e-01
1.000000e+00
9.000000e-01
1.000000e+00
9.000000e-01
1.000000e+00
9.000000e-01
1.000000e+00
9.000000e-01
1.000000e+00
9.000000e-01
1.000000e+00
9.000000e-01
1.000000e+00
9.000000e-01
1.000000e+00
9.000000e-01
1.000000e+00
9.000000e-01
1.000000e+00
9.000000e-01
1.000000e+00
9.000000e-01
1.000000e+00
9.000000e-01
1.000000e+00
9.000000e-01
1.000000e+00
9.000000e-01
1.000000e+00
9.000000e-01
1.000000e+00
9.000000e-01
1.000000e+00
9.000000e-01
1.000000e+00
9.000000e-01
1.000000e+00
9.000000e-01
1.000000e+00
9.000000e-01
1.000000e+00
9.000000e-01
1.000000e+00
9.000000e-01
1.000000e+00
9.000000e-01
1.000000e+00
9.000000e-01
1.000000e+00
9.000000e-01
1.000000e+00
9.000000e-01
1.000000e+00
9.000000e-01
1.000000e+00
9.000000e-01
1.000000e+00
9.000000e-01
1.000000e+00
9.000000e-01
1.000000e+00
9.000000e-01
1.000000e+00
9.000000e-01
1.000000e+00
9.000000e-01
1.000000e+00
9.000000e-01
1.000000e+00
9.000000e-01
1.000000e+00
9.000000e-01
1.000000e+00
9.000000e-01
1.000000e+00
9.000000e-01
1.000000e+00
9.000000e-01
1.000000e+00
9.000000e-01
1.000000e+00
9.000000e-01
1.000000e+00
9.000000e-01
1.000000e+00
9.000000e-01
1.000000e+00
9.000000e-01
1.000000e+00
9.000000e-01
1.000000e+00
9.000000e-01
1.000000e+00
9.000000e-01
1.000000e+00
9.000000e-01
1.000000e+00
9.000000e-01
1.000000e+00
9.000000e-01
1.000000e+00
9.000000e-01
1.000000e+00
9.000000e-01
1.000000e+00
9.000000e-01
1.000000e+00
9.000000e-01
1.000000e+00
9.000000e-01
1.000000e+00
9.000000e-01
1.000000e+00
9.000000e-01
1.000000e+00
9.000000e-01
1.000000e+00
9.000000e-01
1.000000e+00
9.000000e-01
1.000000e+00
9.000000e-01
1.000000e+00
9.000000e-01
1.000000e+00
9.000000e-01
1.000000e+00
9.000000e-01
1.000000e+00
9.000000e-01
1.000000e+00
9.000000e-01
1.000000e+00
9.000000e-01
1.000000e+00
9.000000e-01
1.000000e+00
9.000000e-01
1.000000e+00
9.000000e-01
1.000000e+00
</DataArray>
<DataArray type="Float32" Name="V5" format="ascii">
0.000000e+00
0.000000e+00
3.272490e-02
3.272490e-02
3.272490e-02
3.272490e-02
6.544980e-02
6.544980e-02
6.544980e-02
6.544980e-02
9.817480e-02
9.817480e-02
9.817480e-02
9.817480e-02
1.309000e-01
1.309000e-01
1.309000e-01
1.309000e-01
1.636250e-01
1.636250e-01
1.636250e-01
1.636250e-01
1.963500e-01
1.963500e-01
1.963500e-01
1.963500e-01
2.290740e-01
2.290740e-01
2.290740e-01
2.290740e-01
2.617990e-01
2.617990e-01
2.617990e-01
2.617990e-01
2.945240e-01
2.945240e-01
2.945240e-01
2.945240e-01
3.272490e-01
3.272490e-01
3.272490e-01
3.272490e-01
3.599740e-01
3.599740e-01
3.599740e-01
3.599740e-01
3.926990e-01
3.926990e-01
3.926990e-01
3.926990e-01
4.254240e-01
4.254240e-01
4.254240e-01
4.254240e-01
4.581490e-01
4.581490e-01
4.581490e-01
4.581490e-01
4.908740e-01
4.908740e-01
4.908740e-01
4.908740e-01
5.235990e-01
5.235990e-01
5.235990e-01
5.235990e-01
5.563240e-01
5.563240e-01
5.563240e-01
5.563240e-01
5.890490e-01
5.890490e-01
5.890490e-01
5.890490e-01
6.217740e-01
6.217740e-01
6.217740e-01
6.217740e-01
6.544980e-01
6.544980e-01
6.544980e-01
6.544980e-01
6.872230e-01
6.872230e-01
6.872230e-01
6.872230e-01
7.199480e-01
7.199480e-01
7.199480e-01
7.199480e-01
7.526730e-01
7.526730e-01
7.526730e-01
7.526730e-01
7.853980e-01
7.853980e-01
7.853980e-01
7.853980e-01
8.181230e-01
8.181230e-01
8.181230e-01
8.181230e-01
8.508480e-01
8.508480e-01
8.508480e-01
8.508480e-01
8.835730e-01
8.835730e-01
8.835730e-01
8.835730e-01
9.162980e-01
9.162980e-01
9.162980e-01
9.162980e-01
9.490230e-01
9.490230e-01
9.490230e-01
9.490230e-01
9.817480e-01
9.817480e-01
9.817480e-01
9.817480e-01
1.014470e+00
1.014470e+00
1.014470e+00
1.014470e+00
1.047200e+00
1.047200e+00
1.047200e+00
1.047200e+00
1.079920e+00
1.079920e+00
1.079920e+00
1.079920e+00
1.112650e+00
1.112650e+00
1.112650e+00
1.112650e+00
1.145370e+00
1.145370e+00
1.145370e+00
1.145370e+00
1.178100e+00
1.178100e+00
1.178100e+00
1.178100e+00
1.210820e+00
1.210820e+00
1.210820e+00
1.210820e+00
1.243550e+00
1.243550e+00
1.243550e+00
1.243550e+00
1.276270e+00
1.276270e+00
1.276270e+00
1.276270e+00
1.309000e+00
1.309000e+00
1.309000e+00
1.309000e+00
1.341720e+00
1.341720e+00
1.341720e+00
1.341720e+00
1.374450e+00
1.374450e+00
1.374450e+00
1.374450e+00
1.407170e+00
1.407170e+00
1.407170e+00
1.407170e+00
1.439900e+00
1.439900e+00
1.439900e+00
1.439900e+00
1.472620e+00
1.472620e+00
1.472620e+00
1.472620e+00
1.505350e+00
1.505350e+00
1.505350e+00
1.505350e+00
1.538070e+00
1.538070e+00
1.538070e+00
1.538070e+00
1.570800e+00
1.570800e+00
</DataArray>
</PointData>
</Piece></UnstructuredGrid>
</VTKFile>
