<?xml version="1.0"?>
<VTKFile type="UnstructuredGrid" version="0.1" byte_order="LittleEndian" compressor="vtkZLibDataCompressor">
<UnstructuredGrid>
<Piece NumberOfPoints="192" NumberOfCells="48">
<Points>
<DataArray type="Float32" NumberOfComponents="3" format="ascii">
0.000000e+00 8.288230e-01 0.000000e+00
0.000000e+00 9.300000e-01 0.000000e+00
3.090350e-02 8.288650e-01 0.000000e+00
3.098070e-02 9.300000e-01 0.000000e+00
3.090350e-02 8.288650e-01 0.000000e+00
3.098070e-02 9.300000e-01 0.000000e+00
6.176260e-02 8.289900e-01 0.000000e+00
6.201720e-02 9.300000e-01 0.000000e+00
6.176260e-02 8.289900e-01 0.000000e+00
6.201720e-02 9.300000e-01 0.000000e+00
9.251510e-02 8.291820e-01 0.000000e+00
9.317330e-02 9.300000e-01 0.000000e+00
9.251510e-02 8.291820e-01 0.000000e+00
9.317330e-02 9.300000e-01 0.000000e+00
1.230660e-01 8.293900e-01 0.000000e+00
1.245210e-01 9.300000e-01 0.000000e+00
1.230660e-01 8.293900e-01 0.000000e+00
1.245210e-01 9.300000e-01 0.000000e+00
1.532930e-01 8.294770e-01 0.000000e+00
1.561270e-01 9.300000e-01 0.000000e+00
1.532930e-01 8.294770e-01 0.000000e+00
1.561270e-01 9.300000e-01 0.000000e+00
1.831220e-01 8.292030e-01 0.000000e+00
1.880060e-01 9.300000e-01 0.000000e+00
1.831220e-01 8.292030e-01 0.000000e+00
1.880060e-01 9.300000e-01 0.000000e+00
2.126130e-01 8.282810e-01 0.000000e+00
2.200690e-01 9.291120e-01 0.000000e+00
2.126130e-01 8.282810e-01 0.000000e+00
2.200690e-01 9.291120e-01 0.000000e+00
2.416600e-01 8.264660e-01 0.000000e+00
2.523310e-01 9.268550e-01 0.000000e+00
2.416600e-01 8.264660e-01 0.000000e+00
2.523310e-01 9.268550e-01 0.000000e+00
2.703330e-01 8.235470e-01 0.000000e+00
2.846970e-01 9.232810e-01 0.000000e+00
2.703330e-01 8.235470e-01 0.000000e+00
2.846970e-01 9.232810e-01 0.000000e+00
2.986720e-01 8.194170e-01 0.000000e+00
3.170380e-01 9.182930e-01 0.000000e+00
2.986720e-01 8.194170e-01 0.000000e+00
3.170380e-01 9.182930e-01 0.000000e+00
3.266750e-01 8.140200e-01 0.000000e+00
3.492280e-01 9.118320e-01 0.000000e+00
3.266750e-01 8.140200e-01 0.000000e+00
3.492280e-01 9.118320e-01 0.000000e+00
3.543260e-01 8.073300e-01 0.000000e+00
3.811500e-01 9.038700e-01 0.000000e+00
3.543260e-01 8.073300e-01 0.000000e+00
3.811500e-01 9.038700e-01 0.000000e+00
3.815970e-01 7.993400e-01 0.000000e+00
4.126980e-01 8.944120e-01 0.000000e+00
3.815970e-01 7.993400e-01 0.000000e+00
4.126980e-01 8.944120e-01 0.000000e+00
4.084580e-01 7.900610e-01 0.000000e+00
4.437790e-01 8.834850e-01 0.000000e+00
4.084580e-01 7.900610e-01 0.000000e+00
4.437790e-01 8.834850e-01 0.000000e+00
4.348720e-01 7.795160e-01 0.000000e+00
4.743140e-01 8.711310e-01 0.000000e+00
4.348720e-01 7.795160e-01 0.000000e+00
4.743140e-01 8.711310e-01 0.000000e+00
4.608070e-01 7.677400e-01 0.000000e+00
5.042370e-01 8.574030e-01 0.000000e+00
4.608070e-01 7.677400e-01 0.000000e+00
5.042370e-01 8.574030e-01 0.000000e+00
4.862290e-01 7.547740e-01 0.000000e+00
5.334930e-01 8.423630e-01 0.000000e+00
4.862290e-01 7.547740e-01 0.000000e+00
5.334930e-01 8.423630e-01 0.000000e+00
5.111070e-01 7.406640e-01 0.000000e+00
5.620380e-01 8.260750e-01 0.000000e+00
5.111070e-01 7.406640e-01 0.000000e+00
5.620380e-01 8.260750e-01 0.000000e+00
5.354120e-01 7.254590e-01 0.000000e+00
5.898360e-01 8.086050e-01 0.000000e+00
5.354120e-01 7.254590e-01 0.000000e+00
5.898360e-01 8.086050e-01 0.000000e+00
5.591160e-01 7.092100e-01 0.000000e+00
6.168600e-01 7.900170e-01 0.000000e+00
5.591160e-01 7.092100e-01 0.000000e+00
6.168600e-01 7.900170e-01 0.000000e+00
5.821940e-01 6.919670e-01 0.000000e+00
6.430870e-01 7.703730e-01 0.000000e+00
5.821940e-01 6.919670e-01 0.000000e+00
6.430870e-01 7.703730e-01 0.000000e+00
6.046260e-01 6.737810e-01 0.000000e+00
6.685010e-01 7.497330e-01 0.000000e+00
6.046260e-01 6.737810e-01 0.000000e+00
6.685010e-01 7.497330e-01 0.000000e+00
6.263880e-01 6.547010e-01 0.000000e+00
6.930860e-01 7.281520e-01 0.000000e+00
6.263880e-01 6.547010e-01 0.000000e+00
6.930860e-01 7.281520e-01 0.000000e+00
6.474620e-01 6.347730e-01 0.000000e+00
7.168310e-01 7.056830e-01 0.000000e+00
6.474620e-01 6.347730e-01 0.000000e+00
7.168310e-01 7.056830e-01 0.000000e+00
6.678290e-01 6.140440e-01 0.000000e+00
7.397250e-01 6.823750e-01 0.000000e+00
6.678290e-01 6.140440e-01 0.000000e+00
7.397250e-01 6.823750e-01 0.000000e+00
6.874730e-01 5.925580e-01 0.000000e+00
7.617580e-01 6.582720e-01 0.000000e+00
6.874730e-01 5.925580e-01 0.000000e+00
7.617580e-01 6.582720e-01 0.000000e+00
7.063760e-01 5.703550e-01 0.000000e+00
7.829210e-01 6.334190e-01 0.000000e+00
7.063760e-01 5.703550e-01 0.000000e+00
7.829210e-01 6.334190e-01 0.000000e+00
7.245220e-01 5.474760e-01 0.000000e+00
8.032040e-01 6.078540e-01 0.000000e+00
7.245220e-01 5.474760e-01 0.000000e+00
8.032040e-01 6.078540e-01 0.000000e+00
7.418970e-01 5.239590e-01 0.000000e+00
8.225970e-01 5.816160e-01 0.000000e+00
7.418970e-01 5.239590e-01 0.000000e+00
8.225970e-01 5.816160e-01 0.000000e+00
7.584840e-01 4.998400e-01 0.000000e+00
8.410900e-01 5.547420e-01 0.000000e+00
7.584840e-01 4.998400e-01 0.000000e+00
8.410900e-01 5.547420e-01 0.000000e+00
7.742710e-01 4.751550e-01 0.000000e+00
8.586720e-01 5.272660e-01 0.000000e+00
7.742710e-01 4.751550e-01 0.000000e+00
8.586720e-01 5.272660e-01 0.000000e+00
7.892410e-01 4.499380e-01 0.000000e+00
8.753320e-01 4.992220e-01 0.000000e+00
7.892410e-01 4.499380e-01 0.000000e+00
8.753320e-01 4.992220e-01 0.000000e+00
8.033830e-01 4.242230e-01 0.000000e+00
8.910580e-01 4.706430e-01 0.000000e+00
8.033830e-01 4.242230e-01 0.000000e+00
8.910580e-01 4.706430e-01 0.000000e+00
8.166810e-01 3.980410e-01 0.000000e+00
9.058400e-01 4.415620e-01 0.000000e+00
8.166810e-01 3.980410e-01 0.000000e+00
9.058400e-01 4.415620e-01 0.000000e+00
8.291250e-01 3.714250e-01 0.000000e+00
9.196640e-01 4.120120e-01 0.000000e+00
8.291250e-01 3.714250e-01 0.000000e+00
9.196640e-01 4.120120e-01 0.000000e+00
8.407000e-01 3.444050e-01 0.000000e+00
9.325200e-01 3.820240e-01 0.000000e+00
8.407000e-01 3.444050e-01 0.000000e+00
9.325200e-01 3.820240e-01 0.000000e+00
8.513970e-01 3.170140e-01 0.000000e+00
9.443970e-01 3.516310e-01 0.000000e+00
8.513970e-01 3.170140e-01 0.000000e+00
9.443970e-01 3.516310e-01 0.000000e+00
8.612020e-01 2.892830e-01 0.000000e+00
9.552830e-01 3.208650e-01 0.000000e+00
8.612020e-01 2.892830e-01 0.000000e+00
9.552830e-01 3.208650e-01 0.000000e+00
8.701070e-01 2.612410e-01 0.000000e+00
9.651670e-01 2.897580e-01 0.000000e+00
8.701070e-01 2.612410e-01 0.000000e+00
9.651670e-01 2.897580e-01 0.000000e+00
8.781020e-01 2.329190e-01 0.000000e+00
9.740400e-01 2.583440e-01 0.000000e+00
8.781020e-01 2.329190e-01 0.000000e+00
9.740400e-01 2.583440e-01 0.000000e+00
8.851770e-01 2.043500e-01 0.000000e+00
9.818920e-01 2.266560e-01 0.000000e+00
8.851770e-01 2.043500e-01 0.000000e+00
9.818920e-01 2.266560e-01 0.000000e+00
8.913250e-01 1.755620e-01 0.000000e+00
9.887150e-01 1.947270e-01 0.000000e+00
8.913250e-01 1.755620e-01 0.000000e+00
9.887150e-01 1.947270e-01 0.000000e+00
8.965390e-01 1.465880e-01 0.000000e+00
9.945020e-01 1.625900e-01 0.000000e+00
8.965390e-01 1.465880e-01 0.000000e+00
9.945020e-01 1.625900e-01 0.000000e+00
9.008140e-01 1.174580e-01 0.000000e+00
9.992460e-01 1.302810e-01 0.000000e+00
9.008140e-01 1.174580e-01 0.000000e+00
9.992460e-01 1.302810e-01 0.000000e+00
9.041440e-01 8.820250e-02 0.000000e+00
1.002940e+00 9.783220e-02 0.000000e+00
9.041440e-01 8.820250e-02 0.000000e+00
1.002940e+00 9.783220e-02 0.000000e+00
9.065250e-01 5.885370e-02 0.000000e+00
1.005580e+00 6.527950e-02 0.000000e+00
9.065250e-01 5.885370e-02 0.000000e+00
1.005580e+00 6.527950e-02 0.000000e+00
9.079550e-01 2.944250e-02 0.000000e+00
1.007170e+00 3.265720e-02 0.000000e+00
9.079550e-01 2.944250e-02 0.000000e+00
1.007170e+00 3.265720e-02 0.000000e+00
9.084310e-01 4.448220e-12 0.000000e+00
1.007700e+00 4.934290e-12 0.000000e+00
</DataArray>
</Points>
<Cells>
<DataArray type="Int32" Name="connectivity" format="ascii">
0 1 3 2
4 5 7 6
8 9 11 10
12 13 15 14
16 17 19 18
20 21 23 22
24 25 27 26
28 29 31 30
32 33 35 34
36 37 39 38
40 41 43 42
44 45 47 46
48 49 51 50
52 53 55 54
56 57 59 58
60 61 63 62
64 65 67 66
68 69 71 70
72 73 75 74
76 77 79 78
80 81 83 82
84 85 87 86
88 89 91 90
92 93 95 94
96 97 99 98
100 101 103 102
104 105 107 106
108 109 111 110
112 113 115 114
116 117 119 118
120 121 123 122
124 125 127 126
128 129 131 130
132 133 135 134
136 137 139 138
140 141 143 142
144 145 147 146
148 149 151 150
152 153 155 154
156 157 159 158
160 161 163 162
164 165 167 166
168 169 171 170
172 173 175 174
176 177 179 178
180 181 183 182
184 185 187 186
188 189 191 190
</DataArray>
<DataArray type="Int32" Name="offsets" format="ascii">
4
8
12
16
20
24
28
32
36
40
44
48
52
56
60
64
68
72
76
80
84
88
92
96
100
104
108
112
116
120
124
128
132
136
140
144
148
152
156
160
164
168
172
176
180
184
188
192
</DataArray>
<DataArray type="UInt8" Name="types" format="ascii">
9
9
9
9
9
9
9
9
9
9
9
9
9
9
9
9
9
9
9
9
9
9
9
9
9
9
9
9
9
9
9
9
9
9
9
9
9
9
9
9
9
9
9
9
9
9
9
9
</DataArray>
</Cells>
<PointData>
<DataArray type="Float32" Name="V1" format="ascii">
8.785740e-01
-1.216620e+00
8.760330e-01
-1.219160e+00
8.683910e-01
-1.210830e+00
8.616130e-01
-1.217610e+00
8.394250e-01
-1.195910e+00
8.298280e-01
-1.205510e+00
7.800240e-01
-1.158520e+00
7.725790e-01
-1.165960e+00
6.738610e-01
-1.074440e+00
6.834130e-01
-1.064890e+00
5.042170e-01
-8.978400e-01
5.589180e-01
-8.431380e-01
3.241870e-01
-5.991110e-01
3.683590e-01
-5.549390e-01
2.009470e-01
-4.051280e-01
2.167580e-01
-3.893160e-01
9.315360e-02
-2.739240e-01
1.085090e-01
-2.585690e-01
1.188790e-02
-1.679360e-01
2.835710e-02
-1.514670e-01
-4.561570e-02
-8.223850e-02
-2.885790e-02
-6.548070e-02
-8.384380e-02
-1.415600e-02
-6.749860e-02
2.189200e-03
-1.066680e-01
3.867710e-02
-9.121090e-02
5.413410e-02
-1.173870e-01
7.848060e-02
-1.031350e-01
9.273240e-02
-1.188340e-01
1.073140e-01
-1.059830e-01
1.201650e-01
-1.134250e-01
1.270630e-01
-1.020710e-01
1.384170e-01
-1.031840e-01
1.394300e-01
-9.334590e-02
1.492680e-01
-8.977510e-02
1.459280e-01
-8.141020e-02
1.542930e-01
-7.453020e-02
1.478760e-01
-6.755420e-02
1.548520e-01
-5.849060e-02
1.464050e-01
-5.279040e-02
1.521050e-01
-4.244330e-02
1.424630e-01
-3.788950e-02
1.470160e-01
-2.696130e-02
1.368320e-01
-2.341770e-02
1.403750e-01
-1.244060e-02
1.301430e-01
-9.771190e-03
1.328130e-01
8.656530e-04
1.228960e-01
2.791450e-03
1.248220e-01
1.281660e-02
1.154730e-01
1.412080e-02
1.167770e-01
2.335780e-02
1.081610e-01
2.415150e-02
1.089550e-01
3.249900e-02
1.011670e-01
3.288140e-02
1.015500e-01
4.029570e-02
9.463130e-02
4.035430e-02
9.468990e-02
4.683500e-02
8.864160e-02
4.664510e-02
8.845170e-02
5.222350e-02
8.324470e-02
5.184940e-02
8.287050e-02
5.657870e-02
7.845560e-02
5.607430e-02
7.795110e-02
6.002180e-02
7.426560e-02
5.943170e-02
7.367540e-02
6.267300e-02
7.064900e-02
6.203330e-02
7.000930e-02
6.464770e-02
6.756800e-02
6.398760e-02
6.690790e-02
6.605450e-02
6.497770e-02
6.539660e-02
6.431980e-02
6.699330e-02
6.282870e-02
6.635500e-02
6.219040e-02
6.755470e-02
6.107000e-02
6.694910e-02
6.046440e-02
6.781970e-02
5.965130e-02
6.725600e-02
5.908760e-02
6.785970e-02
5.852380e-02
6.734430e-02
5.800840e-02
6.773680e-02
5.764180e-02
6.727390e-02
5.717890e-02
6.750470e-02
5.696330e-02
6.709650e-02
5.655510e-02
6.720870e-02
5.645020e-02
6.685620e-02
5.609770e-02
6.688670e-02
5.606930e-02
6.659010e-02
5.577260e-02
6.656980e-02
5.579150e-02
6.632860e-02
5.555030e-02
6.628290e-02
5.559300e-02
6.609640e-02
5.540660e-02
6.604510e-02
5.545450e-02
6.591260e-02
5.532200e-02
6.587030e-02
5.536150e-02
6.579110e-02
5.528230e-02
6.576760e-02
5.530420e-02
6.574120e-02
5.527790e-02
</DataArray>
<DataArray type="Float32" Name="V2" format="ascii">
8.288230e-01
9.300000e-01
8.294320e-01
9.305160e-01
8.294320e-01
9.305160e-01
8.312540e-01
9.320650e-01
8.312540e-01
9.320650e-01
8.342570e-01
9.346540e-01
8.342570e-01
9.346540e-01
8.383580e-01
9.382970e-01
8.383580e-01
9.382970e-01
8.433680e-01
9.430110e-01
8.433680e-01
9.430110e-01
8.489950e-01
9.488080e-01
8.489950e-01
9.488080e-01
8.549230e-01
9.548130e-01
8.549230e-01
9.548130e-01
8.608510e-01
9.605810e-01
8.608510e-01
9.605810e-01
8.665590e-01
9.661680e-01
8.665590e-01
9.661680e-01
8.719350e-01
9.714680e-01
8.719350e-01
9.714680e-01
8.769170e-01
9.764040e-01
8.769170e-01
9.764040e-01
8.814700e-01
9.809270e-01
8.814700e-01
9.809270e-01
8.855780e-01
9.850110e-01
8.855780e-01
9.850110e-01
8.892400e-01
9.886520e-01
8.892400e-01
9.886520e-01
8.924690e-01
9.918590e-01
8.924690e-01
9.918590e-01
8.952860e-01
9.946510e-01
8.952860e-01
9.946510e-01
8.977180e-01
9.970570e-01
8.977180e-01
9.970570e-01
8.997960e-01
9.991080e-01
8.997960e-01
9.991080e-01
9.015520e-01
1.000840e+00
9.015520e-01
1.000840e+00
9.030220e-01
1.002280e+00
9.030220e-01
1.002280e+00
9.042380e-01
1.003480e+00
9.042380e-01
1.003480e+00
9.052330e-01
1.004450e+00
9.052330e-01
1.004450e+00
9.060360e-01
1.005240e+00
9.060360e-01
1.005240e+00
9.066770e-01
1.005870e+00
9.066770e-01
1.005870e+00
9.071810e-01
1.006360e+00
9.071810e-01
1.006360e+00
9.075700e-01
1.006750e+00
9.075700e-01
1.006750e+00
9.078650e-01
1.007040e+00
9.078650e-01
1.007040e+00
9.080840e-01
1.007260e+00
9.080840e-01
1.007260e+00
9.082430e-01
1.007420e+00
9.082430e-01
1.007420e+00
9.083530e-01
1.007540e+00
9.083530e-01
1.007540e+00
9.084260e-01
1.007620e+00
9.084260e-01
1.007620e+00
9.084720e-01
1.007670e+00
9.084720e-01
1.007670e+00
9.084970e-01
1.007700e+00
9.084970e-01
1.007700e+00
9.085080e-01
1.007720e+00
9.085080e-01
1.007720e+00
9.085090e-01
1.007730e+00
9.085090e-01
1.007730e+00
9.085040e-01
1.007730e+00
9.085040e-01
1.007730e+00
9.084960e-01
1.007730e+00
9.084960e-01
1.007730e+00
9.084850e-01
1.007720e+00
9.084850e-01
1.007720e+00
9.084750e-01
1.007720e+00
9.084750e-01
1.007720e+00
9.084650e-01
1.007710e+00
9.084650e-01
1.007710e+00
9.084560e-01
1.007710e+00
9.084560e-01
1.007710e+00
9.084490e-01
1.007710e+00
9.084490e-01
1.007710e+00
9.084430e-01
1.007700e+00
9.084430e-01
1.007700e+00
9.084390e-01
1.007700e+00
9.084390e-01
1.007700e+00
9.084350e-01
1.007700e+00
9.084350e-01
1.007700e+00
9.084330e-01
1.007700e+00
9.084330e-01
1.007700e+00
9.084320e-01
1.007700e+00
9.084320e-01
1.007700e+00
9.084310e-01
1.007700e+00
</DataArray>
<DataArray type="Float32" Name="V3" format="ascii">
0.000000e+00
0.000000e+00
3.767230e-03
5.353380e-04
3.767230e-03
5.353380e-04
7.411860e-03
1.059510e-03
7.411860e-03
1.059510e-03
1.079560e-02
1.568730e-03
1.079560e-02
1.568730e-03
1.375650e-02
2.066400e-03
1.375650e-02
2.066400e-03
1.612730e-02
2.548380e-03
1.612730e-02
2.548380e-03
1.783410e-02
2.959080e-03
1.783410e-02
2.959080e-03
1.897580e-02
3.340760e-03
1.897580e-02
3.340760e-03
1.952010e-02
3.845480e-03
1.952010e-02
3.845480e-03
1.962990e-02
4.423760e-03
1.962990e-02
4.423760e-03
1.942820e-02
5.037210e-03
1.942820e-02
5.037210e-03
1.899820e-02
5.652070e-03
1.899820e-02
5.652070e-03
1.840230e-02
6.240530e-03
1.840230e-02
6.240530e-03
1.768990e-02
6.781010e-03
1.768990e-02
6.781010e-03
1.689950e-02
7.257640e-03
1.689950e-02
7.257640e-03
1.606180e-02
7.659680e-03
1.606180e-02
7.659680e-03
1.520080e-02
7.980930e-03
1.520080e-02
7.980930e-03
1.433510e-02
8.219070e-03
1.433510e-02
8.219070e-03
1.347920e-02
8.375060e-03
1.347920e-02
8.375060e-03
1.264370e-02
8.452380e-03
1.264370e-02
8.452380e-03
1.183650e-02
8.456460e-03
1.183650e-02
8.456460e-03
1.106310e-02
8.393980e-03
1.106310e-02
8.393980e-03
1.032690e-02
8.272380e-03
1.032690e-02
8.272380e-03
9.629810e-03
8.099400e-03
9.629810e-03
8.099400e-03
8.972380e-03
7.882690e-03
8.972380e-03
7.882690e-03
8.354150e-03
7.629610e-03
8.354150e-03
7.629610e-03
7.773870e-03
7.346970e-03
7.773870e-03
7.346970e-03
7.229670e-03
7.040960e-03
7.229670e-03
7.040960e-03
6.719270e-03
6.717060e-03
6.719270e-03
6.717060e-03
6.240110e-03
6.380030e-03
6.240110e-03
6.380030e-03
5.789460e-03
6.033920e-03
5.789460e-03
6.033920e-03
5.364540e-03
5.682110e-03
5.364540e-03
5.682110e-03
4.962590e-03
5.327360e-03
4.962590e-03
5.327360e-03
4.580930e-03
4.971860e-03
4.580930e-03
4.971860e-03
4.217010e-03
4.617330e-03
4.217010e-03
4.617330e-03
3.868450e-03
4.265030e-03
3.868450e-03
4.265030e-03
3.533080e-03
3.915870e-03
3.533080e-03
3.915870e-03
3.208890e-03
3.570420e-03
3.208890e-03
3.570420e-03
2.894100e-03
3.229020e-03
2.894100e-03
3.229020e-03
2.587140e-03
2.891790e-03
2.587140e-03
2.891790e-03
2.286600e-03
2.558650e-03
2.286600e-03
2.558650e-03
1.991300e-03
2.229420e-03
1.991300e-03
2.229420e-03
1.700190e-03
1.903790e-03
1.700190e-03
1.903790e-03
1.412390e-03
1.581360e-03
1.412390e-03
1.581360e-03
1.127150e-03
1.261680e-03
1.127150e-03
1.261680e-03
8.438070e-04
9.442530e-04
8.438070e-04
9.442530e-04
5.618220e-04
6.285390e-04
5.618220e-04
6.285390e-04
2.807000e-04
3.139790e-04
2.807000e-04
3.139790e-04
0.000000e+00
0.000000e+00
</DataArray>
<DataArray type="Float32" Name="V4" format="ascii">
9.000000e-01
1.000000e+00
9.000000e-01
1.000000e+00
9.000000e-01
1.000000e+00
9.000000e-01
1.000000e+00
9.000000e-01
1.000000e+00
9.000000e-01
1.000000e+00
9.000000e-01
1.000000e+00
9.000000e-01
1.000000e+00
9.000000e-01
1.000000e+00
9.000000e-01
1.000000e+00
9.000000e-01
1.000000e+00
9.000000e-01
1.000000e+00
9.000000e-01
1.000000e+00
9.000000e-01
1.000000e+00
9.000000e-01
1.000000e+00
9.000000e-01
1.000000e+00
9.000000e-01
1.000000e+00
9.000000e-01
1.000000e+00
9.000000e-01
1.000000e+00
9.000000e-01
1.000000e+00
9.000000e-01
1.000000e+00
9.000000e-01
1.000000e+00
9.000000e-01
1.000000e+00
9.000000e-01
1.000000e+00
9.000000e-01
1.000000e+00
9.000000e-01
1.000000e+00
9.000000e-01
1.000000e+00
9.000000e-01
1.000000e+00
9.000000e-01
1.000000e+00
9.000000e-01
1.000000e+00
9.000000e-01
1.000000e+00
9.000000e-01
1.000000e+00
9.000000e-01
1.000000e+00
9.000000e-01
1.000000e+00
9.000000e-01
1.000000e+00
9.000000e-01
1.000000e+00
9.000000e-01
1.000000e+00
9.000000e-01
1.000000e+00
9.000000e-01
1.000000e+00
9.000000e-01
1.000000e+00
9.000000e-01
1.000000e+00
9.000000e-01
1.000000e+00
9.000000e-01
1.000000e+00
9.000000e-01
1.000000e+00
9.000000e-01
1.000000e+00
9.000000e-01
1.000000e+00
9.000000e-01
1.000000e+00
9.000000e-01
1.000000e+00
9.000000e-01
1.000000e+00
9.000000e-01
1.000000e+00
9.000000e-01
1.000000e+00
9.000000e-01
1.000000e+00
9.000000e-01
1.000000e+00
9.000000e-01
1.000000e+00
9.000000e-01
1.000000e+00
9.000000e-01
1.000000e+00
9.000000e-01
1.000000e+00
9.000000e-01
1.000000e+00
9.000000e-01
1.000000e+00
9.000000e-01
1.000000e+00
9.000000e-01
1.000000e+00
9.000000e-01
1.000000e+00
9.000000e-01
1.000000e+00
9.000000e-01
1.000000e+00
9.000000e-01
1.000000e+00
9.000000e-01
1.000000e+00
9.000000e-01
1.000000e+00
9.000000e-01
1.000000e+00
9.000000e-01
1.000000e+00
9.000000e-01
1.000000e+00
9.000000e-01
1.000000e+00
9.000000e-01
1.000000e+00
9.000000e-01
1.000000e+00
9.000000e-01
1.000000e+00
9.000000e-01
1.000000e+00
9.000000e-01
1.000000e+00
9.000000e-01
1.000000e+00
9.000000e-01
1.000000e+00
9.000000e-01
1.000000e+00
9.000000e-01
1.000000e+00
9.000000e-01
1.000000e+00
9.000000e-01
1.000000e+00
9.000000e-01
1.000000e+00
9.000000e-01
1.000000e+00
9.000000e-01
1.000000e+00
9.000000e-01
1.000000e+00
9.000000e-01
1.000000e+00
9.000000e-01
1.000000e+00
9.000000e-01
1.000000e+00
9.000000e-01
1.000000e+00
9.000000e-01
1.000000e+00
9.000000e-01
1.000000e+00
9.000000e-01
1.000000e+00
9.000000e-01
1.000000e+00
9.000000e-01
1.000000e+00
9.000000e-01
1.000000e+00
</DataArray>
<DataArray type="Float32" Name="V5" format="ascii">
0.000000e+00
0.000000e+00
3.272490e-02
3.272490e-02
3.272490e-02
3.272490e-02
6.544980e-02
6.544980e-02
6.544980e-02
6.544980e-02
9.817480e-02
9.817480e-02
9.817480e-02
9.817480e-02
1.309000e-01
1.309000e-01
1.309000e-01
1.309000e-01
1.636250e-01
1.636250e-01
1.636250e-01
1.636250e-01
1.963500e-01
1.963500e-01
1.963500e-01
1.963500e-01
2.290740e-01
2.290740e-01
2.290740e-01
2.290740e-01
2.617990e-01
2.617990e-01
2.617990e-01
2.617990e-01
2.945240e-01
2.945240e-01
2.945240e-01
2.945240e-01
3.272490e-01
3.272490e-01
3.272490e-01
3.272490e-01
3.599740e-01
3.599740e-01
3.599740e-01
3.599740e-01
3.926990e-01
3.926990e-01
3.926990e-01
3.926990e-01
4.254240e-01
4.254240e-01
4.254240e-01
4.254240e-01
4.581490e-01
4.581490e-01
4.581490e-01
4.581490e-01
4.908740e-01
4.908740e-01
4.908740e-01
4.908740e-01
5.235990e-01
5.235990e-01
5.235990e-01
5.235990e-01
5.563240e-01
5.563240e-01
5.563240e-01
5.563240e-01
5.890490e-01
5.890490e-01
5.890490e-01
5.890490e-01
6.217740e-01
6.217740e-01
6.217740e-01
6.217740e-01
6.544980e-01
6.544980e-01
6.544980e-01
6.544980e-01
6.872230e-01
6.872230e-01
6.872230e-01
6.872230e-01
7.199480e-01
7.199480e-01
7.199480e-01
7.199480e-01
7.526730e-01
7.526730e-01
7.526730e-01
7.526730e-01
7.853980e-01
7.853980e-01
7.853980e-01
7.853980e-01
8.181230e-01
8.181230e-01
8.181230e-01
8.181230e-01
8.508480e-01
8.508480e-01
8.508480e-01
8.508480e-01
8.835730e-01
8.835730e-01
8.835730e-01
8.835730e-01
9.162980e-01
9.162980e-01
9.162980e-01
9.162980e-01
9.490230e-01
9.490230e-01
9.490230e-01
9.490230e-01
9.817480e-01
9.817480e-01
9.817480e-01
9.817480e-01
1.014470e+00
1.014470e+00
1.014470e+00
1.014470e+00
1.047200e+00
1.047200e+00
1.047200e+00
1.047200e+00
1.079920e+00
1.079920e+00
1.079920e+00
1.079920e+00
1.112650e+00
1.112650e+00
1.112650e+00
1.112650e+00
1.145370e+00
1.145370e+00
1.145370e+00
1.145370e+00
1.178100e+00
1.178100e+00
1.178100e+00
1.178100e+00
1.210820e+00
1.210820e+00
1.210820e+00
1.210820e+00
1.243550e+00
1.243550e+00
1.243550e+00
1.243550e+00
1.276270e+00
1.276270e+00
1.276270e+00
1.276270e+00
1.309000e+00
1.309000e+00
1.309000e+00
1.309000e+00
1.341720e+00
1.341720e+00
1.341720e+00
1.341720e+00
1.374450e+00
1.374450e+00
1.374450e+00
1.374450e+00
1.407170e+00
1.407170e+00
1.407170e+00
1.407170e+00
1.439900e+00
1.439900e+00
1.439900e+00
1.439900e+00
1.472620e+00
1.472620e+00
1.472620e+00
1.472620e+00
1.505350e+00
1.505350e+00
1.505350e+00
1.505350e+00
1.538070e+00
1.538070e+00
1.538070e+00
1.538070e+00
1.570800e+00
1.570800e+00
</DataArray>
</PointData>
</Piece></UnstructuredGrid>
</VTKFile>
