<?xml version="1.0"?>
<VTKFile type="UnstructuredGrid" version="0.1" byte_order="LittleEndian" compressor="vtkZLibDataCompressor">
<UnstructuredGrid>
<Piece NumberOfPoints="192" NumberOfCells="48">
<Points>
<DataArray type="Float32" NumberOfComponents="3" format="ascii">
0.000000e+00 7.883430e-01 0.000000e+00
0.000000e+00 8.900000e-01 0.000000e+00
3.089150e-02 7.883640e-01 0.000000e+00
3.083030e-02 8.900000e-01 0.000000e+00
3.089150e-02 7.883640e-01 0.000000e+00
3.083030e-02 8.900000e-01 0.000000e+00
6.178020e-02 7.884270e-01 0.000000e+00
6.166770e-02 8.900000e-01 0.000000e+00
6.178020e-02 7.884270e-01 0.000000e+00
6.166770e-02 8.900000e-01 0.000000e+00
9.265930e-02 7.885410e-01 0.000000e+00
9.252450e-02 8.900000e-01 0.000000e+00
9.265930e-02 7.885410e-01 0.000000e+00
9.252450e-02 8.900000e-01 0.000000e+00
1.235120e-01 7.887140e-01 0.000000e+00
1.234240e-01 8.900000e-01 0.000000e+00
1.235120e-01 7.887140e-01 0.000000e+00
1.234240e-01 8.900000e-01 0.000000e+00
1.543030e-01 7.889560e-01 0.000000e+00
1.544080e-01 8.900000e-01 0.000000e+00
1.543030e-01 7.889560e-01 0.000000e+00
1.544080e-01 8.900000e-01 0.000000e+00
1.849650e-01 7.892600e-01 0.000000e+00
1.855400e-01 8.900000e-01 0.000000e+00
1.849650e-01 7.892600e-01 0.000000e+00
1.855400e-01 8.900000e-01 0.000000e+00
2.153850e-01 7.895700e-01 0.000000e+00
2.169010e-01 8.900000e-01 0.000000e+00
2.153850e-01 7.895700e-01 0.000000e+00
2.169010e-01 8.900000e-01 0.000000e+00
2.454150e-01 7.897280e-01 0.000000e+00
2.485700e-01 8.900000e-01 0.000000e+00
2.454150e-01 7.897280e-01 0.000000e+00
2.485700e-01 8.900000e-01 0.000000e+00
2.749790e-01 7.894630e-01 0.000000e+00
2.805620e-01 8.900000e-01 0.000000e+00
2.749790e-01 7.894630e-01 0.000000e+00
2.805620e-01 8.900000e-01 0.000000e+00
3.041180e-01 7.884210e-01 0.000000e+00
3.127680e-01 8.887980e-01 0.000000e+00
3.041180e-01 7.884210e-01 0.000000e+00
3.127680e-01 8.887980e-01 0.000000e+00
3.327170e-01 7.863330e-01 0.000000e+00
3.451980e-01 8.860630e-01 0.000000e+00
3.327170e-01 7.863330e-01 0.000000e+00
3.451980e-01 8.860630e-01 0.000000e+00
3.608580e-01 7.829450e-01 0.000000e+00
3.777110e-01 8.817490e-01 0.000000e+00
3.608580e-01 7.829450e-01 0.000000e+00
3.777110e-01 8.817490e-01 0.000000e+00
3.885740e-01 7.781390e-01 0.000000e+00
4.101340e-01 8.757420e-01 0.000000e+00
3.885740e-01 7.781390e-01 0.000000e+00
4.101340e-01 8.757420e-01 0.000000e+00
4.158580e-01 7.718550e-01 0.000000e+00
4.422950e-01 8.679790e-01 0.000000e+00
4.158580e-01 7.718550e-01 0.000000e+00
4.422950e-01 8.679790e-01 0.000000e+00
4.426850e-01 7.640730e-01 0.000000e+00
4.740380e-01 8.584490e-01 0.000000e+00
4.426850e-01 7.640730e-01 0.000000e+00
4.740380e-01 8.584490e-01 0.000000e+00
4.690210e-01 7.547990e-01 0.000000e+00
5.052230e-01 8.471840e-01 0.000000e+00
4.690210e-01 7.547990e-01 0.000000e+00
5.052230e-01 8.471840e-01 0.000000e+00
4.948270e-01 7.440640e-01 0.000000e+00
5.357370e-01 8.342460e-01 0.000000e+00
4.948270e-01 7.440640e-01 0.000000e+00
5.357370e-01 8.342460e-01 0.000000e+00
5.200630e-01 7.319150e-01 0.000000e+00
5.654870e-01 8.197170e-01 0.000000e+00
5.200630e-01 7.319150e-01 0.000000e+00
5.654870e-01 8.197170e-01 0.000000e+00
5.446950e-01 7.184100e-01 0.000000e+00
5.944030e-01 8.036910e-01 0.000000e+00
5.446950e-01 7.184100e-01 0.000000e+00
5.944030e-01 8.036910e-01 0.000000e+00
5.686890e-01 7.036160e-01 0.000000e+00
6.224320e-01 7.862680e-01 0.000000e+00
5.686890e-01 7.036160e-01 0.000000e+00
6.224320e-01 7.862680e-01 0.000000e+00
5.920160e-01 6.876040e-01 0.000000e+00
6.495400e-01 7.675470e-01 0.000000e+00
5.920160e-01 6.876040e-01 0.000000e+00
6.495400e-01 7.675470e-01 0.000000e+00
6.146510e-01 6.704450e-01 0.000000e+00
6.757050e-01 7.476250e-01 0.000000e+00
6.146510e-01 6.704450e-01 0.000000e+00
6.757050e-01 7.476250e-01 0.000000e+00
6.365740e-01 6.522120e-01 0.000000e+00
7.009130e-01 7.265930e-01 0.000000e+00
6.365740e-01 6.522120e-01 0.000000e+00
7.009130e-01 7.265930e-01 0.000000e+00
6.577650e-01 6.329750e-01 0.000000e+00
7.251610e-01 7.045350e-01 0.000000e+00
6.577650e-01 6.329750e-01 0.000000e+00
7.251610e-01 7.045350e-01 0.000000e+00
6.782100e-01 6.128010e-01 0.000000e+00
7.484470e-01 6.815270e-01 0.000000e+00
6.782100e-01 6.128010e-01 0.000000e+00
7.484470e-01 6.815270e-01 0.000000e+00
6.978960e-01 5.917540e-01 0.000000e+00
7.707730e-01 6.576390e-01 0.000000e+00
6.978960e-01 5.917540e-01 0.000000e+00
7.707730e-01 6.576390e-01 0.000000e+00
7.168090e-01 5.698940e-01 0.000000e+00
7.921420e-01 6.329350e-01 0.000000e+00
7.168090e-01 5.698940e-01 0.000000e+00
7.921420e-01 6.329350e-01 0.000000e+00
7.349380e-01 5.472770e-01 0.000000e+00
8.125570e-01 6.074700e-01 0.000000e+00
7.349380e-01 5.472770e-01 0.000000e+00
8.125570e-01 6.074700e-01 0.000000e+00
7.522730e-01 5.239560e-01 0.000000e+00
8.320220e-01 5.812960e-01 0.000000e+00
7.522730e-01 5.239560e-01 0.000000e+00
8.320220e-01 5.812960e-01 0.000000e+00
7.688040e-01 4.999800e-01 0.000000e+00
8.505360e-01 5.544610e-01 0.000000e+00
7.688040e-01 4.999800e-01 0.000000e+00
8.505360e-01 5.544610e-01 0.000000e+00
7.845200e-01 4.753950e-01 0.000000e+00
8.681010e-01 5.270070e-01 0.000000e+00
7.845200e-01 4.753950e-01 0.000000e+00
8.681010e-01 5.270070e-01 0.000000e+00
7.994100e-01 4.502440e-01 0.000000e+00
8.847130e-01 4.989750e-01 0.000000e+00
7.994100e-01 4.502440e-01 0.000000e+00
8.847130e-01 4.989750e-01 0.000000e+00
8.134650e-01 4.245670e-01 0.000000e+00
9.003700e-01 4.704020e-01 0.000000e+00
8.134650e-01 4.245670e-01 0.000000e+00
9.003700e-01 4.704020e-01 0.000000e+00
8.266740e-01 3.984040e-01 0.000000e+00
9.150670e-01 4.413250e-01 0.000000e+00
8.266740e-01 3.984040e-01 0.000000e+00
9.150670e-01 4.413250e-01 0.000000e+00
8.390280e-01 3.717910e-01 0.000000e+00
9.287980e-01 4.117780e-01 0.000000e+00
8.390280e-01 3.717910e-01 0.000000e+00
9.287980e-01 4.117780e-01 0.000000e+00
8.505150e-01 3.447630e-01 0.000000e+00
9.415570e-01 3.817950e-01 0.000000e+00
8.505150e-01 3.447630e-01 0.000000e+00
9.415570e-01 3.817950e-01 0.000000e+00
8.611250e-01 3.173550e-01 0.000000e+00
9.533350e-01 3.514080e-01 0.000000e+00
8.611250e-01 3.173550e-01 0.000000e+00
9.533350e-01 3.514080e-01 0.000000e+00
8.708510e-01 2.896000e-01 0.000000e+00
9.641250e-01 3.206510e-01 0.000000e+00
8.708510e-01 2.896000e-01 0.000000e+00
9.641250e-01 3.206510e-01 0.000000e+00
8.796810e-01 2.615320e-01 0.000000e+00
9.739180e-01 2.895570e-01 0.000000e+00
8.796810e-01 2.615320e-01 0.000000e+00
9.739180e-01 2.895570e-01 0.000000e+00
8.876070e-01 2.331810e-01 0.000000e+00
9.827070e-01 2.581580e-01 0.000000e+00
8.876070e-01 2.331810e-01 0.000000e+00
9.827070e-01 2.581580e-01 0.000000e+00
8.946210e-01 2.045800e-01 0.000000e+00
9.904830e-01 2.264880e-01 0.000000e+00
8.946210e-01 2.045800e-01 0.000000e+00
9.904830e-01 2.264880e-01 0.000000e+00
9.007160e-01 1.757600e-01 0.000000e+00
9.972390e-01 1.945780e-01 0.000000e+00
9.007160e-01 1.757600e-01 0.000000e+00
9.972390e-01 1.945780e-01 0.000000e+00
9.058850e-01 1.467530e-01 0.000000e+00
1.002970e+00 1.624640e-01 0.000000e+00
9.058850e-01 1.467530e-01 0.000000e+00
1.002970e+00 1.624640e-01 0.000000e+00
9.101230e-01 1.175890e-01 0.000000e+00
1.007660e+00 1.301780e-01 0.000000e+00
9.101230e-01 1.175890e-01 0.000000e+00
1.007660e+00 1.301780e-01 0.000000e+00
9.134230e-01 8.830120e-02 0.000000e+00
1.011320e+00 9.775400e-02 0.000000e+00
9.134230e-01 8.830120e-02 0.000000e+00
1.011320e+00 9.775400e-02 0.000000e+00
9.157840e-01 5.891950e-02 0.000000e+00
1.013940e+00 6.522690e-02 0.000000e+00
9.157840e-01 5.891950e-02 0.000000e+00
1.013940e+00 6.522690e-02 0.000000e+00
9.172010e-01 2.947540e-02 0.000000e+00
1.015510e+00 3.263070e-02 0.000000e+00
9.172010e-01 2.947540e-02 0.000000e+00
1.015510e+00 3.263070e-02 0.000000e+00
9.176740e-01 4.493470e-12 0.000000e+00
1.016030e+00 4.975100e-12 0.000000e+00
</DataArray>
</Points>
<Cells>
<DataArray type="Int32" Name="connectivity" format="ascii">
0 1 3 2
4 5 7 6
8 9 11 10
12 13 15 14
16 17 19 18
20 21 23 22
24 25 27 26
28 29 31 30
32 33 35 34
36 37 39 38
40 41 43 42
44 45 47 46
48 49 51 50
52 53 55 54
56 57 59 58
60 61 63 62
64 65 67 66
68 69 71 70
72 73 75 74
76 77 79 78
80 81 83 82
84 85 87 86
88 89 91 90
92 93 95 94
96 97 99 98
100 101 103 102
104 105 107 106
108 109 111 110
112 113 115 114
116 117 119 118
120 121 123 122
124 125 127 126
128 129 131 130
132 133 135 134
136 137 139 138
140 141 143 142
144 145 147 146
148 149 151 150
152 153 155 154
156 157 159 158
160 161 163 162
164 165 167 166
168 169 171 170
172 173 175 174
176 177 179 178
180 181 183 182
184 185 187 186
188 189 191 190
</DataArray>
<DataArray type="Int32" Name="offsets" format="ascii">
4
8
12
16
20
24
28
32
36
40
44
48
52
56
60
64
68
72
76
80
84
88
92
96
100
104
108
112
116
120
124
128
132
136
140
144
148
152
156
160
164
168
172
176
180
184
188
192
</DataArray>
<DataArray type="UInt8" Name="types" format="ascii">
9
9
9
9
9
9
9
9
9
9
9
9
9
9
9
9
9
9
9
9
9
9
9
9
9
9
9
9
9
9
9
9
9
9
9
9
9
9
9
9
9
9
9
9
9
9
9
9
</DataArray>
</Cells>
<PointData>
<DataArray type="Float32" Name="V1" format="ascii">
8.449420e-01
-1.232610e+00
8.455700e-01
-1.231990e+00
8.469020e-01
-1.232620e+00
8.479240e-01
-1.231590e+00
8.496010e-01
-1.232500e+00
8.507150e-01
-1.231380e+00
8.507110e-01
-1.230780e+00
8.505490e-01
-1.230940e+00
8.444520e-01
-1.224620e+00
8.416970e-01
-1.227370e+00
8.204610e-01
-1.206950e+00
8.152750e-01
-1.212130e+00
7.624420e-01
-1.162600e+00
7.600660e-01
-1.164970e+00
6.496420e-01
-1.062990e+00
6.677120e-01
-1.044920e+00
4.603480e-01
-8.513190e-01
5.318670e-01
-7.798010e-01
2.719090e-01
-5.113160e-01
3.181330e-01
-4.650920e-01
1.362480e-01
-3.019060e-01
1.587890e-01
-2.793650e-01
1.996010e-02
-1.500430e-01
4.234770e-02
-1.276550e-01
-6.445560e-02
-2.785780e-02
-4.099350e-02
-4.395720e-03
-1.201750e-01
6.939710e-02
-9.667690e-02
9.289550e-02
-1.522570e-01
1.445550e-01
-1.296170e-01
1.671950e-01
-1.654480e-01
2.004320e-01
-1.443010e-01
2.215800e-01
-1.640430e-01
2.398610e-01
-1.448110e-01
2.590930e-01
-1.518500e-01
2.655890e-01
-1.347810e-01
2.826590e-01
-1.321550e-01
2.801950e-01
-1.173470e-01
2.950030e-01
-1.076990e-01
2.860280e-01
-9.513570e-02
2.985910e-01
-8.069390e-02
2.851670e-01
-7.026990e-02
2.955910e-01
-5.285820e-02
2.794070e-01
-4.440990e-02
2.878550e-01
-2.547410e-02
2.702480e-01
-1.880240e-02
2.769190e-01
5.492070e-04
2.589170e-01
5.659880e-03
2.640280e-01
2.461030e-02
2.463900e-01
2.837770e-02
2.501580e-01
4.635340e-02
2.334190e-01
4.898740e-02
2.360530e-01
6.561270e-02
2.205650e-01
6.730870e-02
2.222610e-01
8.236420e-02
2.082290e-01
8.329950e-02
2.091650e-01
9.668570e-02
1.966840e-01
9.701740e-02
1.970150e-01
1.087240e-01
1.860970e-01
1.085890e-01
1.859610e-01
1.186700e-01
1.765560e-01
1.181850e-01
1.760700e-01
1.267380e-01
1.680890e-01
1.260010e-01
1.673510e-01
1.331510e-01
1.606770e-01
1.322440e-01
1.597700e-01
1.381310e-01
1.542730e-01
1.371200e-01
1.532620e-01
1.418920e-01
1.488060e-01
1.408310e-01
1.477450e-01
1.446330e-01
1.441940e-01
1.435640e-01
1.431250e-01
1.465370e-01
1.403490e-01
1.454920e-01
1.393040e-01
1.477670e-01
1.371790e-01
1.467720e-01
1.361840e-01
1.484710e-01
1.345980e-01
1.475440e-01
1.336700e-01
1.487760e-01
1.325200e-01
1.479300e-01
1.316730e-01
1.487920e-01
1.308680e-01
1.480360e-01
1.301110e-01
1.486140e-01
1.295720e-01
1.479530e-01
1.289110e-01
1.483190e-01
1.285690e-01
1.477570e-01
1.280080e-01
1.479720e-01
1.278080e-01
1.475120e-01
1.273480e-01
1.476260e-01
1.272420e-01
1.472680e-01
1.268840e-01
1.473190e-01
1.268360e-01
1.470640e-01
1.265800e-01
1.470830e-01
1.265630e-01
1.469290e-01
1.264100e-01
1.469340e-01
1.264060e-01
1.468830e-01
1.263550e-01
</DataArray>
<DataArray type="Float32" Name="V2" format="ascii">
7.883430e-01
8.900000e-01
7.889520e-01
8.905320e-01
7.889520e-01
8.905320e-01
7.907800e-01
8.921280e-01
7.907800e-01
8.921280e-01
7.938260e-01
8.947830e-01
7.938260e-01
8.947830e-01
7.980880e-01
8.984960e-01
7.980880e-01
8.984960e-01
8.035540e-01
9.032650e-01
8.035540e-01
9.032650e-01
8.101790e-01
9.090960e-01
8.101790e-01
9.090960e-01
8.178530e-01
9.160040e-01
8.178530e-01
9.160040e-01
8.263370e-01
9.240090e-01
8.263370e-01
9.240090e-01
8.352910e-01
9.331200e-01
8.352910e-01
9.331200e-01
8.443350e-01
9.421660e-01
8.443350e-01
9.421660e-01
8.531330e-01
9.508680e-01
8.531330e-01
9.508680e-01
8.614410e-01
9.591740e-01
8.614410e-01
9.591740e-01
8.691450e-01
9.669470e-01
8.691450e-01
9.669470e-01
8.761850e-01
9.740890e-01
8.761850e-01
9.740890e-01
8.825320e-01
9.805440e-01
8.825320e-01
9.805440e-01
8.881860e-01
9.862950e-01
8.881860e-01
9.862950e-01
8.931630e-01
9.913490e-01
8.931630e-01
9.913490e-01
8.974970e-01
9.957380e-01
8.974970e-01
9.957380e-01
9.012300e-01
9.995040e-01
9.012300e-01
9.995040e-01
9.044120e-01
1.002700e+00
9.044120e-01
1.002700e+00
9.070960e-01
1.005390e+00
9.070960e-01
1.005390e+00
9.093350e-01
1.007620e+00
9.093350e-01
1.007620e+00
9.111830e-01
1.009450e+00
9.111830e-01
1.009450e+00
9.126910e-01
1.010950e+00
9.126910e-01
1.010950e+00
9.139080e-01
1.012150e+00
9.139080e-01
1.012150e+00
9.148760e-01
1.013110e+00
9.148760e-01
1.013110e+00
9.156380e-01
1.013860e+00
9.156380e-01
1.013860e+00
9.162270e-01
1.014450e+00
9.162270e-01
1.014450e+00
9.166760e-01
1.014900e+00
9.166760e-01
1.014900e+00
9.170110e-01
1.015240e+00
9.170110e-01
1.015240e+00
9.172570e-01
1.015490e+00
9.172570e-01
1.015490e+00
9.174310e-01
1.015670e+00
9.174310e-01
1.015670e+00
9.175520e-01
1.015800e+00
9.175520e-01
1.015800e+00
9.176310e-01
1.015890e+00
9.176310e-01
1.015890e+00
9.176800e-01
1.015950e+00
9.176800e-01
1.015950e+00
9.177080e-01
1.015990e+00
9.177080e-01
1.015990e+00
9.177210e-01
1.016020e+00
9.177210e-01
1.016020e+00
9.177240e-01
1.016030e+00
9.177240e-01
1.016030e+00
9.177210e-01
1.016040e+00
9.177210e-01
1.016040e+00
9.177140e-01
1.016040e+00
9.177140e-01
1.016040e+00
9.177060e-01
1.016040e+00
9.177060e-01
1.016040e+00
9.176980e-01
1.016040e+00
9.176980e-01
1.016040e+00
9.176910e-01
1.016040e+00
9.176910e-01
1.016040e+00
9.176850e-01
1.016040e+00
9.176850e-01
1.016040e+00
9.176800e-01
1.016030e+00
9.176800e-01
1.016030e+00
9.176760e-01
1.016030e+00
9.176760e-01
1.016030e+00
9.176740e-01
1.016030e+00
9.176740e-01
1.016030e+00
9.176740e-01
1.016030e+00
</DataArray>
<DataArray type="Float32" Name="V3" format="ascii">
0.000000e+00
0.000000e+00
5.080440e-03
1.693840e-03
5.080440e-03
1.693840e-03
1.008240e-02
3.326870e-03
1.008240e-02
3.326870e-03
1.492260e-02
4.843690e-03
1.492260e-02
4.843690e-03
1.950770e-02
6.200070e-03
1.950770e-02
6.200070e-03
2.372500e-02
7.369000e-03
2.372500e-02
7.369000e-03
2.743410e-02
8.344460e-03
2.743410e-02
8.344460e-03
3.046610e-02
9.136850e-03
3.046610e-02
9.136850e-03
3.265590e-02
9.751330e-03
3.265590e-02
9.751330e-03
3.396900e-02
1.012750e-02
3.396900e-02
1.012750e-02
3.454860e-02
1.047430e-02
3.454860e-02
1.047430e-02
3.440610e-02
1.095750e-02
3.440610e-02
1.095750e-02
3.376970e-02
1.152860e-02
3.376970e-02
1.152860e-02
3.279480e-02
1.215100e-02
3.279480e-02
1.215100e-02
3.158890e-02
1.278530e-02
3.158890e-02
1.278530e-02
3.023210e-02
1.339370e-02
3.023210e-02
1.339370e-02
2.878450e-02
1.394410e-02
2.878450e-02
1.394410e-02
2.729140e-02
1.441070e-02
2.729140e-02
1.441070e-02
2.578680e-02
1.477510e-02
2.578680e-02
1.477510e-02
2.429580e-02
1.502600e-02
2.429580e-02
1.502600e-02
2.283690e-02
1.515890e-02
2.283690e-02
1.515890e-02
2.142330e-02
1.517450e-02
2.142330e-02
1.517450e-02
2.006410e-02
1.507810e-02
2.006410e-02
1.507810e-02
1.876510e-02
1.487810e-02
1.876510e-02
1.487810e-02
1.752930e-02
1.458500e-02
1.752930e-02
1.458500e-02
1.635790e-02
1.421050e-02
1.635790e-02
1.421050e-02
1.525030e-02
1.376640e-02
1.525030e-02
1.376640e-02
1.420450e-02
1.326440e-02
1.420450e-02
1.326440e-02
1.321770e-02
1.271540e-02
1.321770e-02
1.271540e-02
1.228630e-02
1.212940e-02
1.228630e-02
1.212940e-02
1.140620e-02
1.151510e-02
1.140620e-02
1.151510e-02
1.057310e-02
1.088030e-02
1.057310e-02
1.088030e-02
9.782550e-03
1.023140e-02
9.782550e-03
1.023140e-02
9.030020e-03
9.573620e-03
9.030020e-03
9.573620e-03
8.311190e-03
8.911370e-03
8.311190e-03
8.911370e-03
7.621940e-03
8.248000e-03
7.621940e-03
8.248000e-03
6.958390e-03
7.586060e-03
6.958390e-03
7.586060e-03
6.316960e-03
6.927410e-03
6.316960e-03
6.927410e-03
5.694380e-03
6.273310e-03
5.694380e-03
6.273310e-03
5.087710e-03
5.624540e-03
5.087710e-03
5.624540e-03
4.494330e-03
4.981450e-03
4.494330e-03
4.981450e-03
3.911930e-03
4.344050e-03
3.911930e-03
4.344050e-03
3.338470e-03
3.712110e-03
3.338470e-03
3.712110e-03
2.772190e-03
3.085160e-03
2.772190e-03
3.085160e-03
2.211520e-03
2.462590e-03
2.211520e-03
2.462590e-03
1.655120e-03
1.843660e-03
1.655120e-03
1.843660e-03
1.101770e-03
1.227520e-03
1.101770e-03
1.227520e-03
5.504030e-04
6.132800e-04
5.504030e-04
6.132800e-04
0.000000e+00
0.000000e+00
</DataArray>
<DataArray type="Float32" Name="V4" format="ascii">
9.000000e-01
1.000000e+00
9.000000e-01
1.000000e+00
9.000000e-01
1.000000e+00
9.000000e-01
1.000000e+00
9.000000e-01
1.000000e+00
9.000000e-01
1.000000e+00
9.000000e-01
1.000000e+00
9.000000e-01
1.000000e+00
9.000000e-01
1.000000e+00
9.000000e-01
1.000000e+00
9.000000e-01
1.000000e+00
9.000000e-01
1.000000e+00
9.000000e-01
1.000000e+00
9.000000e-01
1.000000e+00
9.000000e-01
1.000000e+00
9.000000e-01
1.000000e+00
9.000000e-01
1.000000e+00
9.000000e-01
1.000000e+00
9.000000e-01
1.000000e+00
9.000000e-01
1.000000e+00
9.000000e-01
1.000000e+00
9.000000e-01
1.000000e+00
9.000000e-01
1.000000e+00
9.000000e-01
1.000000e+00
9.000000e-01
1.000000e+00
9.000000e-01
1.000000e+00
9.000000e-01
1.000000e+00
9.000000e-01
1.000000e+00
9.000000e-01
1.000000e+00
9.000000e-01
1.000000e+00
9.000000e-01
1.000000e+00
9.000000e-01
1.000000e+00
9.000000e-01
1.000000e+00
9.000000e-01
1.000000e+00
9.000000e-01
1.000000e+00
9.000000e-01
1.000000e+00
9.000000e-01
1.000000e+00
9.000000e-01
1.000000e+00
9.000000e-01
1.000000e+00
9.000000e-01
1.000000e+00
9.000000e-01
1.000000e+00
9.000000e-01
1.000000e+00
9.000000e-01
1.000000e+00
9.000000e-01
1.000000e+00
9.000000e-01
1.000000e+00
9.000000e-01
1.000000e+00
9.000000e-01
1.000000e+00
9.000000e-01
1.000000e+00
9.000000e-01
1.000000e+00
9.000000e-01
1.000000e+00
9.000000e-01
1.000000e+00
9.000000e-01
1.000000e+00
9.000000e-01
1.000000e+00
9.000000e-01
1.000000e+00
9.000000e-01
1.000000e+00
9.000000e-01
1.000000e+00
9.000000e-01
1.000000e+00
9.000000e-01
1.000000e+00
9.000000e-01
1.000000e+00
9.000000e-01
1.000000e+00
9.000000e-01
1.000000e+00
9.000000e-01
1.000000e+00
9.000000e-01
1.000000e+00
9.000000e-01
1.000000e+00
9.000000e-01
1.000000e+00
9.000000e-01
1.000000e+00
9.000000e-01
1.000000e+00
9.000000e-01
1.000000e+00
9.000000e-01
1.000000e+00
9.000000e-01
1.000000e+00
9.000000e-01
1.000000e+00
9.000000e-01
1.000000e+00
9.000000e-01
1.000000e+00
9.000000e-01
1.000000e+00
9.000000e-01
1.000000e+00
9.000000e-01
1.000000e+00
9.000000e-01
1.000000e+00
9.000000e-01
1.000000e+00
9.000000e-01
1.000000e+00
9.000000e-01
1.000000e+00
9.000000e-01
1.000000e+00
9.000000e-01
1.000000e+00
9.000000e-01
1.000000e+00
9.000000e-01
1.000000e+00
9.000000e-01
1.000000e+00
9.000000e-01
1.000000e+00
9.000000e-01
1.000000e+00
9.000000e-01
1.000000e+00
9.000000e-01
1.000000e+00
9.000000e-01
1.000000e+00
9.000000e-01
1.000000e+00
9.000000e-01
1.000000e+00
9.000000e-01
1.000000e+00
9.000000e-01
1.000000e+00
9.000000e-01
1.000000e+00
9.000000e-01
1.000000e+00
</DataArray>
<DataArray type="Float32" Name="V5" format="ascii">
0.000000e+00
0.000000e+00
3.272490e-02
3.272490e-02
3.272490e-02
3.272490e-02
6.544980e-02
6.544980e-02
6.544980e-02
6.544980e-02
9.817480e-02
9.817480e-02
9.817480e-02
9.817480e-02
1.309000e-01
1.309000e-01
1.309000e-01
1.309000e-01
1.636250e-01
1.636250e-01
1.636250e-01
1.636250e-01
1.963500e-01
1.963500e-01
1.963500e-01
1.963500e-01
2.290740e-01
2.290740e-01
2.290740e-01
2.290740e-01
2.617990e-01
2.617990e-01
2.617990e-01
2.617990e-01
2.945240e-01
2.945240e-01
2.945240e-01
2.945240e-01
3.272490e-01
3.272490e-01
3.272490e-01
3.272490e-01
3.599740e-01
3.599740e-01
3.599740e-01
3.599740e-01
3.926990e-01
3.926990e-01
3.926990e-01
3.926990e-01
4.254240e-01
4.254240e-01
4.254240e-01
4.254240e-01
4.581490e-01
4.581490e-01
4.581490e-01
4.581490e-01
4.908740e-01
4.908740e-01
4.908740e-01
4.908740e-01
5.235990e-01
5.235990e-01
5.235990e-01
5.235990e-01
5.563240e-01
5.563240e-01
5.563240e-01
5.563240e-01
5.890490e-01
5.890490e-01
5.890490e-01
5.890490e-01
6.217740e-01
6.217740e-01
6.217740e-01
6.217740e-01
6.544980e-01
6.544980e-01
6.544980e-01
6.544980e-01
6.872230e-01
6.872230e-01
6.872230e-01
6.872230e-01
7.199480e-01
7.199480e-01
7.199480e-01
7.199480e-01
7.526730e-01
7.526730e-01
7.526730e-01
7.526730e-01
7.853980e-01
7.853980e-01
7.853980e-01
7.853980e-01
8.181230e-01
8.181230e-01
8.181230e-01
8.181230e-01
8.508480e-01
8.508480e-01
8.508480e-01
8.508480e-01
8.835730e-01
8.835730e-01
8.835730e-01
8.835730e-01
9.162980e-01
9.162980e-01
9.162980e-01
9.162980e-01
9.490230e-01
9.490230e-01
9.490230e-01
9.490230e-01
9.817480e-01
9.817480e-01
9.817480e-01
9.817480e-01
1.014470e+00
1.014470e+00
1.014470e+00
1.014470e+00
1.047200e+00
1.047200e+00
1.047200e+00
1.047200e+00
1.079920e+00
1.079920e+00
1.079920e+00
1.079920e+00
1.112650e+00
1.112650e+00
1.112650e+00
1.112650e+00
1.145370e+00
1.145370e+00
1.145370e+00
1.145370e+00
1.178100e+00
1.178100e+00
1.178100e+00
1.178100e+00
1.210820e+00
1.210820e+00
1.210820e+00
1.210820e+00
1.243550e+00
1.243550e+00
1.243550e+00
1.243550e+00
1.276270e+00
1.276270e+00
1.276270e+00
1.276270e+00
1.309000e+00
1.309000e+00
1.309000e+00
1.309000e+00
1.341720e+00
1.341720e+00
1.341720e+00
1.341720e+00
1.374450e+00
1.374450e+00
1.374450e+00
1.374450e+00
1.407170e+00
1.407170e+00
1.407170e+00
1.407170e+00
1.439900e+00
1.439900e+00
1.439900e+00
1.439900e+00
1.472620e+00
1.472620e+00
1.472620e+00
1.472620e+00
1.505350e+00
1.505350e+00
1.505350e+00
1.505350e+00
1.538070e+00
1.538070e+00
1.538070e+00
1.538070e+00
1.570800e+00
1.570800e+00
</DataArray>
</PointData>
</Piece></UnstructuredGrid>
</VTKFile>
