<?xml version="1.0"?>
<VTKFile type="UnstructuredGrid" version="0.1" byte_order="LittleEndian" compressor="vtkZLibDataCompressor">
<UnstructuredGrid>
<Piece NumberOfPoints="192" NumberOfCells="48">
<Points>
<DataArray type="Float32" NumberOfComponents="3" format="ascii">
0.000000e+00 4.767530e-01 0.000000e+00
0.000000e+00 5.500000e-01 0.000000e+00
3.635700e-02 4.767660e-01 0.000000e+00
3.633470e-02 5.500000e-01 0.000000e+00
3.635700e-02 4.767660e-01 0.000000e+00
3.633470e-02 5.500000e-01 0.000000e+00
7.271330e-02 4.768020e-01 0.000000e+00
7.266870e-02 5.500000e-01 0.000000e+00
7.271330e-02 4.768020e-01 0.000000e+00
7.266870e-02 5.500000e-01 0.000000e+00
1.090680e-01 4.768620e-01 0.000000e+00
1.090010e-01 5.500000e-01 0.000000e+00
1.090680e-01 4.768620e-01 0.000000e+00
1.090010e-01 5.500000e-01 0.000000e+00
1.454210e-01 4.769470e-01 0.000000e+00
1.453320e-01 5.500000e-01 0.000000e+00
1.454210e-01 4.769470e-01 0.000000e+00
1.453320e-01 5.500000e-01 0.000000e+00
1.817710e-01 4.770560e-01 0.000000e+00
1.816600e-01 5.500000e-01 0.000000e+00
1.817710e-01 4.770560e-01 0.000000e+00
1.816600e-01 5.500000e-01 0.000000e+00
2.181170e-01 4.771880e-01 0.000000e+00
2.179840e-01 5.500000e-01 0.000000e+00
2.181170e-01 4.771880e-01 0.000000e+00
2.179840e-01 5.500000e-01 0.000000e+00
2.544570e-01 4.773450e-01 0.000000e+00
2.543020e-01 5.500000e-01 0.000000e+00
2.544570e-01 4.773450e-01 0.000000e+00
2.543020e-01 5.500000e-01 0.000000e+00
2.907930e-01 4.775260e-01 0.000000e+00
2.906170e-01 5.500000e-01 0.000000e+00
2.907930e-01 4.775260e-01 0.000000e+00
2.906170e-01 5.500000e-01 0.000000e+00
3.271240e-01 4.777300e-01 0.000000e+00
3.269260e-01 5.500000e-01 0.000000e+00
3.271240e-01 4.777300e-01 0.000000e+00
3.269260e-01 5.500000e-01 0.000000e+00
3.634470e-01 4.779580e-01 0.000000e+00
3.632280e-01 5.500000e-01 0.000000e+00
3.634470e-01 4.779580e-01 0.000000e+00
3.632280e-01 5.500000e-01 0.000000e+00
3.997630e-01 4.782100e-01 0.000000e+00
3.995230e-01 5.500000e-01 0.000000e+00
3.997630e-01 4.782100e-01 0.000000e+00
3.995230e-01 5.500000e-01 0.000000e+00
4.360710e-01 4.784850e-01 0.000000e+00
4.358100e-01 5.500000e-01 0.000000e+00
4.360710e-01 4.784850e-01 0.000000e+00
4.358100e-01 5.500000e-01 0.000000e+00
4.723690e-01 4.787830e-01 0.000000e+00
4.720890e-01 5.500000e-01 0.000000e+00
4.723690e-01 4.787830e-01 0.000000e+00
4.720890e-01 5.500000e-01 0.000000e+00
5.086580e-01 4.791040e-01 0.000000e+00
5.083570e-01 5.500000e-01 0.000000e+00
5.086580e-01 4.791040e-01 0.000000e+00
5.083570e-01 5.500000e-01 0.000000e+00
5.449360e-01 4.794480e-01 0.000000e+00
5.446160e-01 5.500000e-01 0.000000e+00
5.449360e-01 4.794480e-01 0.000000e+00
5.446160e-01 5.500000e-01 0.000000e+00
5.812030e-01 4.798150e-01 0.000000e+00
5.808630e-01 5.500000e-01 0.000000e+00
5.812030e-01 4.798150e-01 0.000000e+00
5.808630e-01 5.500000e-01 0.000000e+00
6.174580e-01 4.802040e-01 0.000000e+00
6.170980e-01 5.500000e-01 0.000000e+00
6.174580e-01 4.802040e-01 0.000000e+00
6.170980e-01 5.500000e-01 0.000000e+00
6.537010e-01 4.806160e-01 0.000000e+00
6.533210e-01 5.500000e-01 0.000000e+00
6.537010e-01 4.806160e-01 0.000000e+00
6.533210e-01 5.500000e-01 0.000000e+00
6.899300e-01 4.810510e-01 0.000000e+00
6.895310e-01 5.500000e-01 0.000000e+00
6.899300e-01 4.810510e-01 0.000000e+00
6.895310e-01 5.500000e-01 0.000000e+00
7.261430e-01 4.815130e-01 0.000000e+00
7.257310e-01 5.500000e-01 0.000000e+00
7.261430e-01 4.815130e-01 0.000000e+00
7.257310e-01 5.500000e-01 0.000000e+00
7.623370e-01 4.820030e-01 0.000000e+00
7.619340e-01 5.500000e-01 0.000000e+00
7.623370e-01 4.820030e-01 0.000000e+00
7.619340e-01 5.500000e-01 0.000000e+00
7.984940e-01 4.825290e-01 0.000000e+00
7.981620e-01 5.500000e-01 0.000000e+00
7.984940e-01 4.825290e-01 0.000000e+00
7.981620e-01 5.500000e-01 0.000000e+00
8.345690e-01 4.830920e-01 0.000000e+00
8.344700e-01 5.500000e-01 0.000000e+00
8.345690e-01 4.830920e-01 0.000000e+00
8.344700e-01 5.500000e-01 0.000000e+00
8.704520e-01 4.836720e-01 0.000000e+00
8.709580e-01 5.500000e-01 0.000000e+00
8.704520e-01 4.836720e-01 0.000000e+00
8.709580e-01 5.500000e-01 0.000000e+00
9.059110e-01 4.841570e-01 0.000000e+00
9.077590e-01 5.500000e-01 0.000000e+00
9.059110e-01 4.841570e-01 0.000000e+00
9.077590e-01 5.500000e-01 0.000000e+00
9.405680e-01 4.841800e-01 0.000000e+00
9.449280e-01 5.500000e-01 0.000000e+00
9.405680e-01 4.841800e-01 0.000000e+00
9.449280e-01 5.500000e-01 0.000000e+00
9.743550e-01 4.830370e-01 0.000000e+00
9.819760e-01 5.494350e-01 0.000000e+00
9.743550e-01 4.830370e-01 0.000000e+00
9.819760e-01 5.494350e-01 0.000000e+00
1.007140e+00 4.797110e-01 0.000000e+00
1.018710e+00 5.452140e-01 0.000000e+00
1.007140e+00 4.797110e-01 0.000000e+00
1.018710e+00 5.452140e-01 0.000000e+00
1.038920e+00 4.737610e-01 0.000000e+00
1.055250e+00 5.376150e-01 0.000000e+00
1.038920e+00 4.737610e-01 0.000000e+00
1.055250e+00 5.376150e-01 0.000000e+00
1.069850e+00 4.650380e-01 0.000000e+00
1.091140e+00 5.267750e-01 0.000000e+00
1.069850e+00 4.650380e-01 0.000000e+00
1.091140e+00 5.267750e-01 0.000000e+00
1.099860e+00 4.536140e-01 0.000000e+00
1.125980e+00 5.128370e-01 0.000000e+00
1.099860e+00 4.536140e-01 0.000000e+00
1.125980e+00 5.128370e-01 0.000000e+00
1.128830e+00 4.396150e-01 0.000000e+00
1.159480e+00 4.960030e-01 0.000000e+00
1.128830e+00 4.396150e-01 0.000000e+00
1.159480e+00 4.960030e-01 0.000000e+00
1.156620e+00 4.232070e-01 0.000000e+00
1.191420e+00 4.765150e-01 0.000000e+00
1.156620e+00 4.232070e-01 0.000000e+00
1.191420e+00 4.765150e-01 0.000000e+00
1.183100e+00 4.045510e-01 0.000000e+00
1.221660e+00 4.546000e-01 0.000000e+00
1.183100e+00 4.045510e-01 0.000000e+00
1.221660e+00 4.546000e-01 0.000000e+00
1.208150e+00 3.838340e-01 0.000000e+00
1.250070e+00 4.304980e-01 0.000000e+00
1.208150e+00 3.838340e-01 0.000000e+00
1.250070e+00 4.304980e-01 0.000000e+00
1.231670e+00 3.612210e-01 0.000000e+00
1.276590e+00 4.044090e-01 0.000000e+00
1.231670e+00 3.612210e-01 0.000000e+00
1.276590e+00 4.044090e-01 0.000000e+00
1.253560e+00 3.368960e-01 0.000000e+00
1.301140e+00 3.765510e-01 0.000000e+00
1.253560e+00 3.368960e-01 0.000000e+00
1.301140e+00 3.765510e-01 0.000000e+00
1.273750e+00 3.110120e-01 0.000000e+00
1.323680e+00 3.470950e-01 0.000000e+00
1.273750e+00 3.110120e-01 0.000000e+00
1.323680e+00 3.470950e-01 0.000000e+00
1.292180e+00 2.837460e-01 0.000000e+00
1.344150e+00 3.162340e-01 0.000000e+00
1.292180e+00 2.837460e-01 0.000000e+00
1.344150e+00 3.162340e-01 0.000000e+00
1.308790e+00 2.552380e-01 0.000000e+00
1.362550e+00 2.841160e-01 0.000000e+00
1.308790e+00 2.552380e-01 0.000000e+00
1.362550e+00 2.841160e-01 0.000000e+00
1.323540e+00 2.256540e-01 0.000000e+00
1.378820e+00 2.509190e-01 0.000000e+00
1.323540e+00 2.256540e-01 0.000000e+00
1.378820e+00 2.509190e-01 0.000000e+00
1.336390e+00 1.951250e-01 0.000000e+00
1.392970e+00 2.167730e-01 0.000000e+00
1.336390e+00 1.951250e-01 0.000000e+00
1.392970e+00 2.167730e-01 0.000000e+00
1.347310e+00 1.638080e-01 0.000000e+00
1.404960e+00 1.818420e-01 0.000000e+00
1.347310e+00 1.638080e-01 0.000000e+00
1.404960e+00 1.818420e-01 0.000000e+00
1.356280e+00 1.318240e-01 0.000000e+00
1.414800e+00 1.462450e-01 0.000000e+00
1.356280e+00 1.318240e-01 0.000000e+00
1.414800e+00 1.462450e-01 0.000000e+00
1.363270e+00 9.932600e-02 0.000000e+00
1.422450e+00 1.101390e-01 0.000000e+00
1.363270e+00 9.932600e-02 0.000000e+00
1.422450e+00 1.101390e-01 0.000000e+00
1.368280e+00 6.642820e-02 0.000000e+00
1.427930e+00 7.363460e-02 0.000000e+00
1.368280e+00 6.642820e-02 0.000000e+00
1.427930e+00 7.363460e-02 0.000000e+00
1.371290e+00 3.328130e-02 0.000000e+00
1.431220e+00 3.688440e-02 0.000000e+00
1.371290e+00 3.328130e-02 0.000000e+00
1.431220e+00 3.688440e-02 0.000000e+00
1.372290e+00 -5.040700e-06 0.000000e+00
1.432310e+00 -5.261170e-06 0.000000e+00
</DataArray>
</Points>
<Cells>
<DataArray type="Int32" Name="connectivity" format="ascii">
0 1 3 2
4 5 7 6
8 9 11 10
12 13 15 14
16 17 19 18
20 21 23 22
24 25 27 26
28 29 31 30
32 33 35 34
36 37 39 38
40 41 43 42
44 45 47 46
48 49 51 50
52 53 55 54
56 57 59 58
60 61 63 62
64 65 67 66
68 69 71 70
72 73 75 74
76 77 79 78
80 81 83 82
84 85 87 86
88 89 91 90
92 93 95 94
96 97 99 98
100 101 103 102
104 105 107 106
108 109 111 110
112 113 115 114
116 117 119 118
120 121 123 122
124 125 127 126
128 129 131 130
132 133 135 134
136 137 139 138
140 141 143 142
144 145 147 146
148 149 151 150
152 153 155 154
156 157 159 158
160 161 163 162
164 165 167 166
168 169 171 170
172 173 175 174
176 177 179 178
180 181 183 182
184 185 187 186
188 189 191 190
</DataArray>
<DataArray type="Int32" Name="offsets" format="ascii">
4
8
12
16
20
24
28
32
36
40
44
48
52
56
60
64
68
72
76
80
84
88
92
96
100
104
108
112
116
120
124
128
132
136
140
144
148
152
156
160
164
168
172
176
180
184
188
192
</DataArray>
<DataArray type="UInt8" Name="types" format="ascii">
9
9
9
9
9
9
9
9
9
9
9
9
9
9
9
9
9
9
9
9
9
9
9
9
9
9
9
9
9
9
9
9
9
9
9
9
9
9
9
9
9
9
9
9
9
9
9
9
</DataArray>
</Cells>
<PointData>
<DataArray type="Float32" Name="V1" format="ascii">
3.166370e+00
8.625340e-01
3.168490e+00
8.646540e-01
3.168970e+00
8.645670e-01
3.174030e+00
8.696220e-01
3.174900e+00
8.692780e-01
3.183640e+00
8.780250e-01
3.184750e+00
8.773110e-01
3.197150e+00
8.897060e-01
3.198530e+00
8.886510e-01
3.214570e+00
9.046900e-01
3.216250e+00
9.033050e-01
3.235950e+00
9.229980e-01
3.237950e+00
9.212850e-01
3.261320e+00
9.446540e-01
3.263650e+00
9.426080e-01
3.290720e+00
9.696830e-01
3.293400e+00
9.672990e-01
3.324220e+00
9.981150e-01
3.327250e+00
9.953830e-01
3.361850e+00
1.029980e+00
3.365260e+00
1.026890e+00
3.403690e+00
1.065330e+00
3.407490e+00
1.061860e+00
3.449810e+00
1.104190e+00
3.454020e+00
1.100330e+00
3.500290e+00
1.146610e+00
3.504930e+00
1.142350e+00
3.555230e+00
1.192640e+00
3.560330e+00
1.187950e+00
3.614730e+00
1.242340e+00
3.620330e+00
1.237180e+00
3.678910e+00
1.295760e+00
3.685070e+00
1.290080e+00
3.747900e+00
1.352910e+00
3.754700e+00
1.346650e+00
3.821850e+00
1.413810e+00
3.829320e+00
1.406940e+00
3.900820e+00
1.478430e+00
3.908850e+00
1.471070e+00
3.984590e+00
1.546810e+00
3.992400e+00
1.539680e+00
4.072110e+00
1.619390e+00
4.076970e+00
1.614970e+00
4.160170e+00
1.698170e+00
4.154270e+00
1.703490e+00
4.240600e+00
1.789810e+00
4.204440e+00
1.822250e+00
4.295560e+00
1.913370e+00
4.186470e+00
2.010640e+00
4.292570e+00
2.116730e+00
4.032380e+00
2.347440e+00
4.189410e+00
2.504480e+00
3.697050e+00
2.976810e+00
3.928530e+00
3.208290e+00
3.497240e+00
3.606640e+00
3.630130e+00
3.739530e+00
3.443430e+00
3.898850e+00
3.555040e+00
4.010450e+00
3.472800e+00
4.084970e+00
3.584150e+00
4.196320e+00
3.555720e+00
4.222400e+00
3.665650e+00
4.332320e+00
3.665750e+00
4.332340e+00
3.772600e+00
4.439180e+00
3.787270e+00
4.425840e+00
3.889810e+00
4.528370e+00
3.911330e+00
4.508780e+00
4.008800e+00
4.606240e+00
4.032920e+00
4.584310e+00
4.124680e+00
4.676070e+00
4.149050e+00
4.653890e+00
4.234720e+00
4.739560e+00
4.258140e+00
4.718280e+00
4.337390e+00
4.797530e+00
4.359190e+00
4.777710e+00
4.431840e+00
4.850360e+00
4.451740e+00
4.832310e+00
4.517620e+00
4.898190e+00
4.535460e+00
4.881990e+00
4.594510e+00
4.941040e+00
4.610280e+00
4.926740e+00
4.662420e+00
4.978880e+00
4.676100e+00
4.966460e+00
4.721310e+00
5.011670e+00
4.732960e+00
5.001130e+00
4.771210e+00
5.039370e+00
4.780840e+00
5.030640e+00
4.812130e+00
5.061940e+00
4.819790e+00
5.055010e+00
4.844120e+00
5.079340e+00
4.849840e+00
5.074160e+00
4.867220e+00
5.091540e+00
4.871010e+00
5.088100e+00
4.881440e+00
5.098530e+00
4.883330e+00
5.096810e+00
4.886800e+00
5.100290e+00
</DataArray>
<DataArray type="Float32" Name="V2" format="ascii">
4.767530e-01
5.500000e-01
4.777000e-01
5.508940e-01
4.777000e-01
5.508940e-01
4.805370e-01
5.535750e-01
4.805370e-01
5.535750e-01
4.852570e-01
5.580360e-01
4.852570e-01
5.580360e-01
4.918480e-01
5.642640e-01
4.918480e-01
5.642640e-01
5.002940e-01
5.722450e-01
5.002940e-01
5.722450e-01
5.105720e-01
5.819580e-01
5.105720e-01
5.819580e-01
5.226570e-01
5.933780e-01
5.226570e-01
5.933780e-01
5.365170e-01
6.064760e-01
5.365170e-01
6.064760e-01
5.521180e-01
6.212190e-01
5.521180e-01
6.212190e-01
5.694190e-01
6.375670e-01
5.694190e-01
6.375670e-01
5.883760e-01
6.554800e-01
5.883760e-01
6.554800e-01
6.089390e-01
6.749110e-01
6.089390e-01
6.749110e-01
6.310560e-01
6.958090e-01
6.310560e-01
6.958090e-01
6.546690e-01
7.181210e-01
6.546690e-01
7.181210e-01
6.797170e-01
7.417870e-01
6.797170e-01
7.417870e-01
7.061330e-01
7.667460e-01
7.061330e-01
7.667460e-01
7.338500e-01
7.929310e-01
7.338500e-01
7.929310e-01
7.627940e-01
8.202740e-01
7.627940e-01
8.202740e-01
7.928900e-01
8.487020e-01
7.928900e-01
8.487020e-01
8.240570e-01
8.781410e-01
8.240570e-01
8.781410e-01
8.562150e-01
9.085210e-01
8.562150e-01
9.085210e-01
8.892680e-01
9.397770e-01
8.892680e-01
9.397770e-01
9.230970e-01
9.718630e-01
9.230970e-01
9.718630e-01
9.575100e-01
1.004770e+00
9.575100e-01
1.004770e+00
9.921580e-01
1.038520e+00
9.921580e-01
1.038520e+00
1.026400e+00
1.073070e+00
1.026400e+00
1.073070e+00
1.059620e+00
1.107640e+00
1.059620e+00
1.107640e+00
1.091050e+00
1.140100e+00
1.091050e+00
1.140100e+00
1.120440e+00
1.170910e+00
1.120440e+00
1.170910e+00
1.147910e+00
1.199910e+00
1.147910e+00
1.199910e+00
1.173540e+00
1.227000e+00
1.173540e+00
1.227000e+00
1.197400e+00
1.252140e+00
1.197400e+00
1.252140e+00
1.219540e+00
1.275370e+00
1.219540e+00
1.275370e+00
1.240020e+00
1.296740e+00
1.240020e+00
1.296740e+00
1.258870e+00
1.316320e+00
1.258870e+00
1.316320e+00
1.276150e+00
1.334180e+00
1.276150e+00
1.334180e+00
1.291880e+00
1.350380e+00
1.291880e+00
1.350380e+00
1.306120e+00
1.365000e+00
1.306120e+00
1.365000e+00
1.318900e+00
1.378070e+00
1.318900e+00
1.378070e+00
1.330250e+00
1.389650e+00
1.330250e+00
1.389650e+00
1.340200e+00
1.399780e+00
1.340200e+00
1.399780e+00
1.348780e+00
1.408500e+00
1.348780e+00
1.408500e+00
1.356000e+00
1.415820e+00
1.356000e+00
1.415820e+00
1.361880e+00
1.421780e+00
1.361880e+00
1.421780e+00
1.366440e+00
1.426400e+00
1.366440e+00
1.426400e+00
1.369690e+00
1.429690e+00
1.369690e+00
1.429690e+00
1.371640e+00
1.431660e+00
1.371640e+00
1.431660e+00
1.372290e+00
1.432310e+00
</DataArray>
<DataArray type="Float32" Name="V3" format="ascii">
0.000000e+00
0.000000e+00
2.073820e-02
1.831980e-02
2.073820e-02
1.831980e-02
4.137330e-02
3.654150e-02
4.137330e-02
3.654150e-02
6.180240e-02
5.456710e-02
6.180240e-02
5.456710e-02
8.192280e-02
7.229930e-02
8.192280e-02
7.229930e-02
1.016330e-01
8.964070e-02
1.016330e-01
8.964070e-02
1.208310e-01
1.064950e-01
1.208310e-01
1.064950e-01
1.394160e-01
1.227680e-01
1.394160e-01
1.227680e-01
1.572920e-01
1.383640e-01
1.572920e-01
1.383640e-01
1.743600e-01
1.531920e-01
1.743600e-01
1.531920e-01
1.905240e-01
1.671600e-01
1.905240e-01
1.671600e-01
2.056910e-01
1.801790e-01
2.056910e-01
1.801790e-01
2.197690e-01
1.921600e-01
2.197690e-01
1.921600e-01
2.326670e-01
2.030200e-01
2.326670e-01
2.030200e-01
2.442990e-01
2.126730e-01
2.442990e-01
2.126730e-01
2.545800e-01
2.210400e-01
2.545800e-01
2.210400e-01
2.634290e-01
2.280420e-01
2.634290e-01
2.280420e-01
2.707660e-01
2.336040e-01
2.707660e-01
2.336040e-01
2.765160e-01
2.376520e-01
2.765160e-01
2.376520e-01
2.806050e-01
2.401200e-01
2.806050e-01
2.401200e-01
2.829620e-01
2.409430e-01
2.829620e-01
2.409430e-01
2.835150e-01
2.400670e-01
2.835150e-01
2.400670e-01
2.821860e-01
2.374500e-01
2.821860e-01
2.374500e-01
2.788840e-01
2.330740e-01
2.788840e-01
2.330740e-01
2.734950e-01
2.269510e-01
2.734950e-01
2.269510e-01
2.659050e-01
2.191120e-01
2.659050e-01
2.191120e-01
2.561340e-01
2.095230e-01
2.561340e-01
2.095230e-01
2.447310e-01
1.982390e-01
2.447310e-01
1.982390e-01
2.325280e-01
1.876030e-01
2.325280e-01
1.876030e-01
2.200540e-01
1.776620e-01
2.200540e-01
1.776620e-01
2.077110e-01
1.682080e-01
2.077110e-01
1.682080e-01
1.955920e-01
1.590950e-01
1.955920e-01
1.590950e-01
1.836950e-01
1.501880e-01
1.836950e-01
1.501880e-01
1.719940e-01
1.413860e-01
1.719940e-01
1.413860e-01
1.604390e-01
1.326050e-01
1.604390e-01
1.326050e-01
1.489940e-01
1.237920e-01
1.489940e-01
1.237920e-01
1.376110e-01
1.149020e-01
1.376110e-01
1.149020e-01
1.262650e-01
1.059130e-01
1.262650e-01
1.059130e-01
1.149230e-01
9.680340e-02
1.149230e-01
9.680340e-02
1.035730e-01
8.757240e-02
1.035730e-01
8.757240e-02
9.219500e-02
7.821330e-02
9.219500e-02
7.821330e-02
8.078660e-02
6.873600e-02
8.078660e-02
6.873600e-02
6.933710e-02
5.914310e-02
6.933710e-02
5.914310e-02
5.785300e-02
4.945160e-02
5.785300e-02
4.945160e-02
4.632950e-02
3.966960e-02
4.632950e-02
3.966960e-02
3.477840e-02
2.981840e-02
3.477840e-02
2.981840e-02
2.319890e-02
1.990910e-02
2.319890e-02
1.990910e-02
1.160560e-02
9.965450e-03
1.160560e-02
9.965450e-03
0.000000e+00
0.000000e+00
</DataArray>
<DataArray type="Float32" Name="V4" format="ascii">
9.000000e-01
1.000000e+00
9.000000e-01
1.000000e+00
9.000000e-01
1.000000e+00
9.000000e-01
1.000000e+00
9.000000e-01
1.000000e+00
9.000000e-01
1.000000e+00
9.000000e-01
1.000000e+00
9.000000e-01
1.000000e+00
9.000000e-01
1.000000e+00
9.000000e-01
1.000000e+00
9.000000e-01
1.000000e+00
9.000000e-01
1.000000e+00
9.000000e-01
1.000000e+00
9.000000e-01
1.000000e+00
9.000000e-01
1.000000e+00
9.000000e-01
1.000000e+00
9.000000e-01
1.000000e+00
9.000000e-01
1.000000e+00
9.000000e-01
1.000000e+00
9.000000e-01
1.000000e+00
9.000000e-01
1.000000e+00
9.000000e-01
1.000000e+00
9.000000e-01
1.000000e+00
9.000000e-01
1.000000e+00
9.000000e-01
1.000000e+00
9.000000e-01
1.000000e+00
9.000000e-01
1.000000e+00
9.000000e-01
1.000000e+00
9.000000e-01
1.000000e+00
9.000000e-01
1.000000e+00
9.000000e-01
1.000000e+00
9.000000e-01
1.000000e+00
9.000000e-01
1.000000e+00
9.000000e-01
1.000000e+00
9.000000e-01
1.000000e+00
9.000000e-01
1.000000e+00
9.000000e-01
1.000000e+00
9.000000e-01
1.000000e+00
9.000000e-01
1.000000e+00
9.000000e-01
1.000000e+00
9.000000e-01
1.000000e+00
9.000000e-01
1.000000e+00
9.000000e-01
1.000000e+00
9.000000e-01
1.000000e+00
9.000000e-01
1.000000e+00
9.000000e-01
1.000000e+00
9.000000e-01
1.000000e+00
9.000000e-01
1.000000e+00
9.000000e-01
1.000000e+00
9.000000e-01
1.000000e+00
9.000000e-01
1.000000e+00
9.000000e-01
1.000000e+00
9.000000e-01
1.000000e+00
9.000000e-01
1.000000e+00
9.000000e-01
1.000000e+00
9.000000e-01
1.000000e+00
9.000000e-01
1.000000e+00
9.000000e-01
1.000000e+00
9.000000e-01
1.000000e+00
9.000000e-01
1.000000e+00
9.000000e-01
1.000000e+00
9.000000e-01
1.000000e+00
9.000000e-01
1.000000e+00
9.000000e-01
1.000000e+00
9.000000e-01
1.000000e+00
9.000000e-01
1.000000e+00
9.000000e-01
1.000000e+00
9.000000e-01
1.000000e+00
9.000000e-01
1.000000e+00
9.000000e-01
1.000000e+00
9.000000e-01
1.000000e+00
9.000000e-01
1.000000e+00
9.000000e-01
1.000000e+00
9.000000e-01
1.000000e+00
9.000000e-01
1.000000e+00
9.000000e-01
1.000000e+00
9.000000e-01
1.000000e+00
9.000000e-01
1.000000e+00
9.000000e-01
1.000000e+00
9.000000e-01
1.000000e+00
9.000000e-01
1.000000e+00
9.000000e-01
1.000000e+00
9.000000e-01
1.000000e+00
9.000000e-01
1.000000e+00
9.000000e-01
1.000000e+00
9.000000e-01
1.000000e+00
9.000000e-01
1.000000e+00
9.000000e-01
1.000000e+00
9.000000e-01
1.000000e+00
9.000000e-01
1.000000e+00
9.000000e-01
1.000000e+00
9.000000e-01
1.000000e+00
9.000000e-01
1.000000e+00
9.000000e-01
1.000000e+00
9.000000e-01
1.000000e+00
9.000000e-01
1.000000e+00
</DataArray>
<DataArray type="Float32" Name="V5" format="ascii">
0.000000e+00
0.000000e+00
3.272490e-02
3.272490e-02
3.272490e-02
3.272490e-02
6.544980e-02
6.544980e-02
6.544980e-02
6.544980e-02
9.817480e-02
9.817480e-02
9.817480e-02
9.817480e-02
1.309000e-01
1.309000e-01
1.309000e-01
1.309000e-01
1.636250e-01
1.636250e-01
1.636250e-01
1.636250e-01
1.963500e-01
1.963500e-01
1.963500e-01
1.963500e-01
2.290740e-01
2.290740e-01
2.290740e-01
2.290740e-01
2.617990e-01
2.617990e-01
2.617990e-01
2.617990e-01
2.945240e-01
2.945240e-01
2.945240e-01
2.945240e-01
3.272490e-01
3.272490e-01
3.272490e-01
3.272490e-01
3.599740e-01
3.599740e-01
3.599740e-01
3.599740e-01
3.926990e-01
3.926990e-01
3.926990e-01
3.926990e-01
4.254240e-01
4.254240e-01
4.254240e-01
4.254240e-01
4.581490e-01
4.581490e-01
4.581490e-01
4.581490e-01
4.908740e-01
4.908740e-01
4.908740e-01
4.908740e-01
5.235990e-01
5.235990e-01
5.235990e-01
5.235990e-01
5.563240e-01
5.563240e-01
5.563240e-01
5.563240e-01
5.890490e-01
5.890490e-01
5.890490e-01
5.890490e-01
6.217740e-01
6.217740e-01
6.217740e-01
6.217740e-01
6.544980e-01
6.544980e-01
6.544980e-01
6.544980e-01
6.872230e-01
6.872230e-01
6.872230e-01
6.872230e-01
7.199480e-01
7.199480e-01
7.199480e-01
7.199480e-01
7.526730e-01
7.526730e-01
7.526730e-01
7.526730e-01
7.853980e-01
7.853980e-01
7.853980e-01
7.853980e-01
8.181230e-01
8.181230e-01
8.181230e-01
8.181230e-01
8.508480e-01
8.508480e-01
8.508480e-01
8.508480e-01
8.835730e-01
8.835730e-01
8.835730e-01
8.835730e-01
9.162980e-01
9.162980e-01
9.162980e-01
9.162980e-01
9.490230e-01
9.490230e-01
9.490230e-01
9.490230e-01
9.817480e-01
9.817480e-01
9.817480e-01
9.817480e-01
1.014470e+00
1.014470e+00
1.014470e+00
1.014470e+00
1.047200e+00
1.047200e+00
1.047200e+00
1.047200e+00
1.079920e+00
1.079920e+00
1.079920e+00
1.079920e+00
1.112650e+00
1.112650e+00
1.112650e+00
1.112650e+00
1.145370e+00
1.145370e+00
1.145370e+00
1.145370e+00
1.178100e+00
1.178100e+00
1.178100e+00
1.178100e+00
1.210820e+00
1.210820e+00
1.210820e+00
1.210820e+00
1.243550e+00
1.243550e+00
1.243550e+00
1.243550e+00
1.276270e+00
1.276270e+00
1.276270e+00
1.276270e+00
1.309000e+00
1.309000e+00
1.309000e+00
1.309000e+00
1.341720e+00
1.341720e+00
1.341720e+00
1.341720e+00
1.374450e+00
1.374450e+00
1.374450e+00
1.374450e+00
1.407170e+00
1.407170e+00
1.407170e+00
1.407170e+00
1.439900e+00
1.439900e+00
1.439900e+00
1.439900e+00
1.472620e+00
1.472620e+00
1.472620e+00
1.472620e+00
1.505350e+00
1.505350e+00
1.505350e+00
1.505350e+00
1.538070e+00
1.538070e+00
1.538070e+00
1.538070e+00
1.570800e+00
1.570800e+00
</DataArray>
</PointData>
</Piece></UnstructuredGrid>
</VTKFile>
