<?xml version="1.0"?>
<VTKFile type="UnstructuredGrid" version="0.1" byte_order="LittleEndian" compressor="vtkZLibDataCompressor">
<UnstructuredGrid>
<Piece NumberOfPoints="120" NumberOfCells="30">
<Points>
<DataArray type="Float32" NumberOfComponents="3" format="ascii">
0.000000e+00 9.040921e-01 0.000000e+00
0.000000e+00 1.040000e+00 0.000000e+00
4.731652e-02 9.028530e-01 0.000000e+00
5.442939e-02 1.038575e+00 0.000000e+00
4.731652e-02 9.028530e-01 0.000000e+00
5.442939e-02 1.038575e+00 0.000000e+00
9.450335e-02 8.991394e-01 0.000000e+00
1.087096e-01 1.034303e+00 0.000000e+00
9.450335e-02 8.991394e-01 0.000000e+00
1.087096e-01 1.034303e+00 0.000000e+00
1.414312e-01 8.929612e-01 0.000000e+00
1.626918e-01 1.027196e+00 0.000000e+00
1.414312e-01 8.929612e-01 0.000000e+00
1.626918e-01 1.027196e+00 0.000000e+00
1.879713e-01 8.843355e-01 0.000000e+00
2.162281e-01 1.017273e+00 0.000000e+00
1.879713e-01 8.843355e-01 0.000000e+00
2.162281e-01 1.017273e+00 0.000000e+00
2.339962e-01 8.732859e-01 0.000000e+00
2.691718e-01 1.004563e+00 0.000000e+00
2.339962e-01 8.732859e-01 0.000000e+00
2.691718e-01 1.004563e+00 0.000000e+00
2.793798e-01 8.598427e-01 0.000000e+00
3.213777e-01 9.890987e-01 0.000000e+00
2.793798e-01 8.598427e-01 0.000000e+00
3.213777e-01 9.890987e-01 0.000000e+00
3.239976e-01 8.440427e-01 0.000000e+00
3.727027e-01 9.709236e-01 0.000000e+00
3.239976e-01 8.440427e-01 0.000000e+00
3.727027e-01 9.709236e-01 0.000000e+00
3.677274e-01 8.259292e-01 0.000000e+00
4.230061e-01 9.500872e-01 0.000000e+00
3.677274e-01 8.259292e-01 0.000000e+00
4.230061e-01 9.500872e-01 0.000000e+00
4.104492e-01 8.055519e-01 0.000000e+00
4.721501e-01 9.266467e-01 0.000000e+00
4.104492e-01 8.055519e-01 0.000000e+00
4.721501e-01 9.266467e-01 0.000000e+00
4.520460e-01 7.829667e-01 0.000000e+00
5.200000e-01 9.006664e-01 0.000000e+00
4.520460e-01 7.829667e-01 0.000000e+00
5.200000e-01 9.006664e-01 0.000000e+00
4.924038e-01 7.582354e-01 0.000000e+00
5.664246e-01 8.722174e-01 0.000000e+00
4.924038e-01 7.582354e-01 0.000000e+00
5.664246e-01 8.722174e-01 0.000000e+00
5.314120e-01 7.314258e-01 0.000000e+00
6.112966e-01 8.413776e-01 0.000000e+00
5.314120e-01 7.314258e-01 0.000000e+00
6.112966e-01 8.413776e-01 0.000000e+00
5.689636e-01 7.026115e-01 0.000000e+00
6.544932e-01 8.082318e-01 0.000000e+00
5.689636e-01 7.026115e-01 0.000000e+00
6.544932e-01 8.082318e-01 0.000000e+00
6.049557e-01 6.718713e-01 0.000000e+00
6.958958e-01 7.728706e-01 0.000000e+00
6.049557e-01 6.718713e-01 0.000000e+00
6.958958e-01 7.728706e-01 0.000000e+00
6.392896e-01 6.392896e-01 0.000000e+00
7.353910e-01 7.353910e-01 0.000000e+00
6.392896e-01 6.392896e-01 0.000000e+00
7.353910e-01 7.353910e-01 0.000000e+00
6.718713e-01 6.049557e-01 0.000000e+00
7.728706e-01 6.958958e-01 0.000000e+00
6.718713e-01 6.049557e-01 0.000000e+00
7.728706e-01 6.958958e-01 0.000000e+00
7.026115e-01 5.689636e-01 0.000000e+00
8.082318e-01 6.544932e-01 0.000000e+00
7.026115e-01 5.689636e-01 0.000000e+00
8.082318e-01 6.544932e-01 0.000000e+00
7.314258e-01 5.314120e-01 0.000000e+00
8.413776e-01 6.112966e-01 0.000000e+00
7.314258e-01 5.314120e-01 0.000000e+00
8.413776e-01 6.112966e-01 0.000000e+00
7.582354e-01 4.924038e-01 0.000000e+00
8.722174e-01 5.664246e-01 0.000000e+00
7.582354e-01 4.924038e-01 0.000000e+00
8.722174e-01 5.664246e-01 0.000000e+00
7.829667e-01 4.520460e-01 0.000000e+00
9.006664e-01 5.200000e-01 0.000000e+00
7.829667e-01 4.520460e-01 0.000000e+00
9.006664e-01 5.200000e-01 0.000000e+00
8.055519e-01 4.104492e-01 0.000000e+00
9.266467e-01 4.721501e-01 0.000000e+00
8.055519e-01 4.104492e-01 0.000000e+00
9.266467e-01 4.721501e-01 0.000000e+00
8.259292e-01 3.677274e-01 0.000000e+00
9.500872e-01 4.230061e-01 0.000000e+00
8.259292e-01 3.677274e-01 0.000000e+00
9.500872e-01 4.230061e-01 0.000000e+00
8.440427e-01 3.239976e-01 0.000000e+00
9.709236e-01 3.727027e-01 0.000000e+00
8.440427e-01 3.239976e-01 0.000000e+00
9.709236e-01 3.727027e-01 0.000000e+00
8.598427e-01 2.793798e-01 0.000000e+00
9.890987e-01 3.213777e-01 0.000000e+00
8.598427e-01 2.793798e-01 0.000000e+00
9.890987e-01 3.213777e-01 0.000000e+00
8.732859e-01 2.339962e-01 0.000000e+00
1.004563e+00 2.691718e-01 0.000000e+00
8.732859e-01 2.339962e-01 0.000000e+00
1.004563e+00 2.691718e-01 0.000000e+00
8.843355e-01 1.879713e-01 0.000000e+00
1.017273e+00 2.162281e-01 0.000000e+00
8.843355e-01 1.879713e-01 0.000000e+00
1.017273e+00 2.162281e-01 0.000000e+00
8.929612e-01 1.414312e-01 0.000000e+00
1.027196e+00 1.626918e-01 0.000000e+00
8.929612e-01 1.414312e-01 0.000000e+00
1.027196e+00 1.626918e-01 0.000000e+00
8.991394e-01 9.450335e-02 0.000000e+00
1.034303e+00 1.087096e-01 0.000000e+00
8.991394e-01 9.450335e-02 0.000000e+00
1.034303e+00 1.087096e-01 0.000000e+00
9.028530e-01 4.731652e-02 0.000000e+00
1.038575e+00 5.442939e-02 0.000000e+00
9.028530e-01 4.731652e-02 0.000000e+00
1.038575e+00 5.442939e-02 0.000000e+00
9.040921e-01 4.426970e-12 0.000000e+00
1.040000e+00 5.092450e-12 0.000000e+00
</DataArray>
</Points>
<Cells>
<DataArray type="Int32" Name="connectivity" format="ascii">
0 1 3 2
4 5 7 6
8 9 11 10
12 13 15 14
16 17 19 18
20 21 23 22
24 25 27 26
28 29 31 30
32 33 35 34
36 37 39 38
40 41 43 42
44 45 47 46
48 49 51 50
52 53 55 54
56 57 59 58
60 61 63 62
64 65 67 66
68 69 71 70
72 73 75 74
76 77 79 78
80 81 83 82
84 85 87 86
88 89 91 90
92 93 95 94
96 97 99 98
100 101 103 102
104 105 107 106
108 109 111 110
112 113 115 114
116 117 119 118
</DataArray>
<DataArray type="Int32" Name="offsets" format="ascii">
4
8
12
16
20
24
28
32
36
40
44
48
52
56
60
64
68
72
76
80
84
88
92
96
100
104
108
112
116
120
</DataArray>
<DataArray type="UInt8" Name="types" format="ascii">
9
9
9
9
9
9
9
9
9
9
9
9
9
9
9
9
9
9
9
9
9
9
9
9
9
9
9
9
9
9
</DataArray>
</Cells>
<PointData>
<DataArray type="Float32" Name="V1" format="ascii">
2.210218e+00
2.131019e+00
2.210218e+00
2.131019e+00
2.210218e+00
2.131019e+00
2.210218e+00
2.131019e+00
2.210218e+00
2.131019e+00
2.210218e+00
2.131019e+00
2.210218e+00
2.131019e+00
2.210218e+00
2.131019e+00
2.210218e+00
2.131019e+00
2.210218e+00
2.131019e+00
2.210218e+00
2.131019e+00
2.210218e+00
2.131019e+00
2.210218e+00
2.131019e+00
2.210218e+00
2.131019e+00
2.210218e+00
2.131019e+00
2.210218e+00
2.131019e+00
2.210218e+00
2.131019e+00
2.210218e+00
2.131019e+00
2.210218e+00
2.131019e+00
2.210218e+00
2.131019e+00
2.210218e+00
2.131019e+00
2.210218e+00
2.131019e+00
2.210218e+00
2.131019e+00
2.210218e+00
2.131019e+00
2.210218e+00
2.131019e+00
2.210218e+00
2.131019e+00
2.210218e+00
2.131019e+00
2.210218e+00
2.131019e+00
2.210218e+00
2.131019e+00
2.210218e+00
2.131019e+00
2.210218e+00
2.131019e+00
2.210218e+00
2.131019e+00
2.210218e+00
2.131019e+00
2.210218e+00
2.131019e+00
2.210218e+00
2.131019e+00
2.210218e+00
2.131019e+00
2.210218e+00
2.131019e+00
2.210218e+00
2.131019e+00
2.210218e+00
2.131019e+00
2.210218e+00
2.131019e+00
2.210218e+00
2.131019e+00
2.210218e+00
2.131019e+00
2.210218e+00
2.131019e+00
2.210218e+00
2.131019e+00
2.210218e+00
2.131019e+00
2.210218e+00
2.131019e+00
2.210218e+00
2.131019e+00
2.210218e+00
2.131019e+00
2.210218e+00
2.131019e+00
2.210218e+00
2.131019e+00
2.210218e+00
2.131019e+00
2.210218e+00
2.131019e+00
2.210218e+00
2.131019e+00
2.210218e+00
2.131019e+00
2.210218e+00
2.131019e+00
2.210218e+00
2.131019e+00
2.210218e+00
2.131019e+00
2.210218e+00
2.131019e+00
2.210218e+00
2.131019e+00
2.210218e+00
2.131019e+00
</DataArray>
<DataArray type="Float32" Name="V2" format="ascii">
9.040921e-01
1.040000e+00
9.040921e-01
1.040000e+00
9.040921e-01
1.040000e+00
9.040921e-01
1.040000e+00
9.040921e-01
1.040000e+00
9.040921e-01
1.040000e+00
9.040921e-01
1.040000e+00
9.040921e-01
1.040000e+00
9.040921e-01
1.040000e+00
9.040921e-01
1.040000e+00
9.040921e-01
1.040000e+00
9.040921e-01
1.040000e+00
9.040921e-01
1.040000e+00
9.040921e-01
1.040000e+00
9.040921e-01
1.040000e+00
9.040921e-01
1.040000e+00
9.040921e-01
1.040000e+00
9.040921e-01
1.040000e+00
9.040921e-01
1.040000e+00
9.040921e-01
1.040000e+00
9.040921e-01
1.040000e+00
9.040921e-01
1.040000e+00
9.040921e-01
1.040000e+00
9.040921e-01
1.040000e+00
9.040921e-01
1.040000e+00
9.040921e-01
1.040000e+00
9.040921e-01
1.040000e+00
9.040921e-01
1.040000e+00
9.040921e-01
1.040000e+00
9.040921e-01
1.040000e+00
9.040921e-01
1.040000e+00
9.040921e-01
1.040000e+00
9.040921e-01
1.040000e+00
9.040921e-01
1.040000e+00
9.040921e-01
1.040000e+00
9.040921e-01
1.040000e+00
9.040921e-01
1.040000e+00
9.040921e-01
1.040000e+00
9.040921e-01
1.040000e+00
9.040921e-01
1.040000e+00
9.040921e-01
1.040000e+00
9.040921e-01
1.040000e+00
9.040921e-01
1.040000e+00
9.040921e-01
1.040000e+00
9.040921e-01
1.040000e+00
9.040921e-01
1.040000e+00
9.040921e-01
1.040000e+00
9.040921e-01
1.040000e+00
9.040921e-01
1.040000e+00
9.040921e-01
1.040000e+00
9.040921e-01
1.040000e+00
9.040921e-01
1.040000e+00
9.040921e-01
1.040000e+00
9.040921e-01
1.040000e+00
9.040921e-01
1.040000e+00
9.040921e-01
1.040000e+00
9.040921e-01
1.040000e+00
9.040921e-01
1.040000e+00
9.040921e-01
1.040000e+00
9.040921e-01
1.040000e+00
</DataArray>
<DataArray type="Float32" Name="V3" format="ascii">
0.000000e+00
0.000000e+00
3.532700e-13
-1.732760e-12
3.532700e-13
-1.732760e-12
-1.487300e-13
-1.936300e-12
-1.487300e-13
-1.936300e-12
1.990000e-14
-1.708570e-12
1.990000e-14
-1.708570e-12
1.696100e-13
-1.555970e-12
1.696100e-13
-1.555970e-12
2.648300e-13
-1.474660e-12
2.648300e-13
-1.474660e-12
3.293300e-13
-1.429370e-12
3.293300e-13
-1.429370e-12
3.751100e-13
-1.406250e-12
3.751100e-13
-1.406250e-12
4.108900e-13
-1.395430e-12
4.108900e-13
-1.395430e-12
4.372200e-13
-1.397370e-12
4.372200e-13
-1.397370e-12
4.577700e-13
-1.408040e-12
4.577700e-13
-1.408040e-12
4.739600e-13
-1.428070e-12
4.739600e-13
-1.428070e-12
4.852800e-13
-1.458400e-12
4.852800e-13
-1.458400e-12
4.931400e-13
-1.498630e-12
4.931400e-13
-1.498630e-12
4.963700e-13
-1.550660e-12
4.963700e-13
-1.550660e-12
4.944300e-13
-1.615720e-12
4.944300e-13
-1.615720e-12
4.856800e-13
-1.695940e-12
4.856800e-13
-1.695940e-12
4.697100e-13
-1.792050e-12
4.697100e-13
-1.792050e-12
4.439900e-13
-1.905200e-12
4.439900e-13
-1.905200e-12
4.053600e-13
-2.037880e-12
4.053600e-13
-2.037880e-12
3.513200e-13
-2.190020e-12
3.513200e-13
-2.190020e-12
2.756100e-13
-2.362500e-12
2.756100e-13
-2.362500e-12
1.744600e-13
-2.554630e-12
1.744600e-13
-2.554630e-12
3.733000e-14
-2.765220e-12
3.733000e-14
-2.765220e-12
-1.446900e-13
-2.989560e-12
-1.446900e-13
-2.989560e-12
-3.850000e-13
-3.218370e-12
-3.850000e-13
-3.218370e-12
-7.004700e-13
-3.439030e-12
-7.004700e-13
-3.439030e-12
-1.108410e-12
-3.628870e-12
-1.108410e-12
-3.628870e-12
-1.500680e-12
-3.612410e-12
-1.500680e-12
-3.612410e-12
-9.136500e-13
-2.457320e-12
-9.136500e-13
-2.457320e-12
0.000000e+00
0.000000e+00
</DataArray>
<DataArray type="Float32" Name="V4" format="ascii">
8.500000e-01
1.000000e+00
8.500000e-01
1.000000e+00
8.500000e-01
1.000000e+00
8.500000e-01
1.000000e+00
8.500000e-01
1.000000e+00
8.500000e-01
1.000000e+00
8.500000e-01
1.000000e+00
8.500000e-01
1.000000e+00
8.500000e-01
1.000000e+00
8.500000e-01
1.000000e+00
8.500000e-01
1.000000e+00
8.500000e-01
1.000000e+00
8.500000e-01
1.000000e+00
8.500000e-01
1.000000e+00
8.500000e-01
1.000000e+00
8.500000e-01
1.000000e+00
8.500000e-01
1.000000e+00
8.500000e-01
1.000000e+00
8.500000e-01
1.000000e+00
8.500000e-01
1.000000e+00
8.500000e-01
1.000000e+00
8.500000e-01
1.000000e+00
8.500000e-01
1.000000e+00
8.500000e-01
1.000000e+00
8.500000e-01
1.000000e+00
8.500000e-01
1.000000e+00
8.500000e-01
1.000000e+00
8.500000e-01
1.000000e+00
8.500000e-01
1.000000e+00
8.500000e-01
1.000000e+00
8.500000e-01
1.000000e+00
8.500000e-01
1.000000e+00
8.500000e-01
1.000000e+00
8.500000e-01
1.000000e+00
8.500000e-01
1.000000e+00
8.500000e-01
1.000000e+00
8.500000e-01
1.000000e+00
8.500000e-01
1.000000e+00
8.500000e-01
1.000000e+00
8.500000e-01
1.000000e+00
8.500000e-01
1.000000e+00
8.500000e-01
1.000000e+00
8.500000e-01
1.000000e+00
8.500000e-01
1.000000e+00
8.500000e-01
1.000000e+00
8.500000e-01
1.000000e+00
8.500000e-01
1.000000e+00
8.500000e-01
1.000000e+00
8.500000e-01
1.000000e+00
8.500000e-01
1.000000e+00
8.500000e-01
1.000000e+00
8.500000e-01
1.000000e+00
8.500000e-01
1.000000e+00
8.500000e-01
1.000000e+00
8.500000e-01
1.000000e+00
8.500000e-01
1.000000e+00
8.500000e-01
1.000000e+00
8.500000e-01
1.000000e+00
8.500000e-01
1.000000e+00
8.500000e-01
1.000000e+00
</DataArray>
<DataArray type="Float32" Name="V5" format="ascii">
0.000000e+00
0.000000e+00
5.235988e-02
5.235988e-02
5.235988e-02
5.235988e-02
1.047198e-01
1.047198e-01
1.047198e-01
1.047198e-01
1.570796e-01
1.570796e-01
1.570796e-01
1.570796e-01
2.094395e-01
2.094395e-01
2.094395e-01
2.094395e-01
2.617994e-01
2.617994e-01
2.617994e-01
2.617994e-01
3.141593e-01
3.141593e-01
3.141593e-01
3.141593e-01
3.665191e-01
3.665191e-01
3.665191e-01
3.665191e-01
4.188790e-01
4.188790e-01
4.188790e-01
4.188790e-01
4.712389e-01
4.712389e-01
4.712389e-01
4.712389e-01
5.235988e-01
5.235988e-01
5.235988e-01
5.235988e-01
5.759587e-01
5.759587e-01
5.759587e-01
5.759587e-01
6.283185e-01
6.283185e-01
6.283185e-01
6.283185e-01
6.806784e-01
6.806784e-01
6.806784e-01
6.806784e-01
7.330383e-01
7.330383e-01
7.330383e-01
7.330383e-01
7.853982e-01
7.853982e-01
7.853982e-01
7.853982e-01
8.377580e-01
8.377580e-01
8.377580e-01
8.377580e-01
8.901179e-01
8.901179e-01
8.901179e-01
8.901179e-01
9.424778e-01
9.424778e-01
9.424778e-01
9.424778e-01
9.948377e-01
9.948377e-01
9.948377e-01
9.948377e-01
1.047198e+00
1.047198e+00
1.047198e+00
1.047198e+00
1.099557e+00
1.099557e+00
1.099557e+00
1.099557e+00
1.151917e+00
1.151917e+00
1.151917e+00
1.151917e+00
1.204277e+00
1.204277e+00
1.204277e+00
1.204277e+00
1.256637e+00
1.256637e+00
1.256637e+00
1.256637e+00
1.308997e+00
1.308997e+00
1.308997e+00
1.308997e+00
1.361357e+00
1.361357e+00
1.361357e+00
1.361357e+00
1.413717e+00
1.413717e+00
1.413717e+00
1.413717e+00
1.466077e+00
1.466077e+00
1.466077e+00
1.466077e+00
1.518436e+00
1.518436e+00
1.518436e+00
1.518436e+00
1.570796e+00
1.570796e+00
</DataArray>
</PointData>
</Piece></UnstructuredGrid>
</VTKFile>
