<?xml version="1.0"?>
<VTKFile type="UnstructuredGrid" version="0.1" byte_order="LittleEndian" compressor="vtkZLibDataCompressor">
<UnstructuredGrid>
<Piece NumberOfPoints="120" NumberOfCells="30">
<Points>
<DataArray type="Float32" NumberOfComponents="3" format="ascii">
0.000000e+00 7.166624e-01 0.000000e+00
0.000000e+00 8.200000e-01 0.000000e+00
5.848375e-02 7.167191e-01 0.000000e+00
5.838124e-02 8.200000e-01 0.000000e+00
5.848375e-02 7.167191e-01 0.000000e+00
5.838124e-02 8.200000e-01 0.000000e+00
1.169678e-01 7.168648e-01 0.000000e+00
1.167651e-01 8.200000e-01 0.000000e+00
1.169678e-01 7.168648e-01 0.000000e+00
1.167651e-01 8.200000e-01 0.000000e+00
1.754493e-01 7.171095e-01 0.000000e+00
1.751575e-01 8.200000e-01 0.000000e+00
1.754493e-01 7.171095e-01 0.000000e+00
1.751575e-01 8.200000e-01 0.000000e+00
2.339239e-01 7.174559e-01 0.000000e+00
2.335689e-01 8.200000e-01 0.000000e+00
2.339239e-01 7.174559e-01 0.000000e+00
2.335689e-01 8.200000e-01 0.000000e+00
2.923813e-01 7.179100e-01 0.000000e+00
2.920220e-01 8.200000e-01 0.000000e+00
2.923813e-01 7.179100e-01 0.000000e+00
2.920220e-01 8.200000e-01 0.000000e+00
3.507972e-01 7.184819e-01 0.000000e+00
3.505631e-01 8.200000e-01 0.000000e+00
3.507972e-01 7.184819e-01 0.000000e+00
3.505631e-01 8.200000e-01 0.000000e+00
4.091190e-01 7.191852e-01 0.000000e+00
4.092814e-01 8.200000e-01 0.000000e+00
4.091190e-01 7.191852e-01 0.000000e+00
4.092814e-01 8.200000e-01 0.000000e+00
4.672355e-01 7.200281e-01 0.000000e+00
4.683352e-01 8.200000e-01 0.000000e+00
4.672355e-01 7.200281e-01 0.000000e+00
4.683352e-01 8.200000e-01 0.000000e+00
5.249206e-01 7.209768e-01 0.000000e+00
5.279697e-01 8.200000e-01 0.000000e+00
5.249206e-01 7.209768e-01 0.000000e+00
5.279697e-01 8.200000e-01 0.000000e+00
5.817388e-01 7.218246e-01 0.000000e+00
5.884626e-01 8.200000e-01 0.000000e+00
5.817388e-01 7.218246e-01 0.000000e+00
5.884626e-01 8.200000e-01 0.000000e+00
6.370578e-01 7.219366e-01 0.000000e+00
6.497088e-01 8.200000e-01 0.000000e+00
6.370578e-01 7.219366e-01 0.000000e+00
6.497088e-01 8.200000e-01 0.000000e+00
6.914892e-01 7.195803e-01 0.000000e+00
7.099237e-01 8.174161e-01 0.000000e+00
6.914892e-01 7.195803e-01 0.000000e+00
7.099237e-01 8.174161e-01 0.000000e+00
7.438711e-01 7.108580e-01 0.000000e+00
7.696010e-01 8.057525e-01 0.000000e+00
7.438711e-01 7.108580e-01 0.000000e+00
7.696010e-01 8.057525e-01 0.000000e+00
7.944104e-01 6.965303e-01 0.000000e+00
8.283631e-01 7.876197e-01 0.000000e+00
7.944104e-01 6.965303e-01 0.000000e+00
8.283631e-01 7.876197e-01 0.000000e+00
8.430385e-01 6.766321e-01 0.000000e+00
8.850684e-01 7.632174e-01 0.000000e+00
8.430385e-01 6.766321e-01 0.000000e+00
8.850684e-01 7.632174e-01 0.000000e+00
8.895262e-01 6.516903e-01 0.000000e+00
9.390504e-01 7.332204e-01 0.000000e+00
8.895262e-01 6.516903e-01 0.000000e+00
9.390504e-01 7.332204e-01 0.000000e+00
9.336201e-01 6.221715e-01 0.000000e+00
9.898816e-01 6.982731e-01 0.000000e+00
9.336201e-01 6.221715e-01 0.000000e+00
9.898816e-01 6.982731e-01 0.000000e+00
9.750942e-01 5.885439e-01 0.000000e+00
1.037310e+00 6.589839e-01 0.000000e+00
9.750942e-01 5.885439e-01 0.000000e+00
1.037310e+00 6.589839e-01 0.000000e+00
1.013756e+00 5.512505e-01 0.000000e+00
1.081184e+00 6.158949e-01 0.000000e+00
1.013756e+00 5.512505e-01 0.000000e+00
1.081184e+00 6.158949e-01 0.000000e+00
1.049447e+00 5.107059e-01 0.000000e+00
1.121408e+00 5.694846e-01 0.000000e+00
1.049447e+00 5.107059e-01 0.000000e+00
1.121408e+00 5.694846e-01 0.000000e+00
1.082040e+00 4.672944e-01 0.000000e+00
1.157920e+00 5.201770e-01 0.000000e+00
1.082040e+00 4.672944e-01 0.000000e+00
1.157920e+00 5.201770e-01 0.000000e+00
1.111429e+00 4.213728e-01 0.000000e+00
1.190678e+00 4.683510e-01 0.000000e+00
1.111429e+00 4.213728e-01 0.000000e+00
1.190678e+00 4.683510e-01 0.000000e+00
1.137531e+00 3.732733e-01 0.000000e+00
1.219650e+00 4.143506e-01 0.000000e+00
1.137531e+00 3.732733e-01 0.000000e+00
1.219650e+00 4.143506e-01 0.000000e+00
1.160276e+00 3.233073e-01 0.000000e+00
1.244809e+00 3.584922e-01 0.000000e+00
1.160276e+00 3.233073e-01 0.000000e+00
1.244809e+00 3.584922e-01 0.000000e+00
1.179608e+00 2.717692e-01 0.000000e+00
1.266134e+00 3.010719e-01 0.000000e+00
1.179608e+00 2.717692e-01 0.000000e+00
1.266134e+00 3.010719e-01 0.000000e+00
1.195483e+00 2.189396e-01 0.000000e+00
1.283608e+00 2.423696e-01 0.000000e+00
1.195483e+00 2.189396e-01 0.000000e+00
1.283608e+00 2.423696e-01 0.000000e+00
1.207866e+00 1.650886e-01 0.000000e+00
1.297214e+00 1.826540e-01 0.000000e+00
1.207866e+00 1.650886e-01 0.000000e+00
1.297214e+00 1.826540e-01 0.000000e+00
1.216729e+00 1.104781e-01 0.000000e+00
1.306942e+00 1.221850e-01 0.000000e+00
1.216729e+00 1.104781e-01 0.000000e+00
1.306942e+00 1.221850e-01 0.000000e+00
1.222054e+00 5.536441e-02 0.000000e+00
1.312782e+00 6.121685e-02 0.000000e+00
1.222054e+00 5.536441e-02 0.000000e+00
1.312782e+00 6.121685e-02 0.000000e+00
1.223831e+00 5.992600e-12 0.000000e+00
1.314729e+00 6.437690e-12 0.000000e+00
</DataArray>
</Points>
<Cells>
<DataArray type="Int32" Name="connectivity" format="ascii">
0 1 3 2
4 5 7 6
8 9 11 10
12 13 15 14
16 17 19 18
20 21 23 22
24 25 27 26
28 29 31 30
32 33 35 34
36 37 39 38
40 41 43 42
44 45 47 46
48 49 51 50
52 53 55 54
56 57 59 58
60 61 63 62
64 65 67 66
68 69 71 70
72 73 75 74
76 77 79 78
80 81 83 82
84 85 87 86
88 89 91 90
92 93 95 94
96 97 99 98
100 101 103 102
104 105 107 106
108 109 111 110
112 113 115 114
116 117 119 118
</DataArray>
<DataArray type="Int32" Name="offsets" format="ascii">
4
8
12
16
20
24
28
32
36
40
44
48
52
56
60
64
68
72
76
80
84
88
92
96
100
104
108
112
116
120
</DataArray>
<DataArray type="UInt8" Name="types" format="ascii">
9
9
9
9
9
9
9
9
9
9
9
9
9
9
9
9
9
9
9
9
9
9
9
9
9
9
9
9
9
9
</DataArray>
</Cells>
<PointData>
<DataArray type="Float32" Name="V1" format="ascii">
1.539902e+01
-2.859957e-01
1.542201e+01
-2.630059e-01
1.544806e+01
-2.817990e-01
1.550849e+01
-2.213738e-01
1.556215e+01
-2.587454e-01
1.566397e+01
-1.569202e-01
1.574217e+01
-2.122948e-01
1.588597e+01
-6.848903e-02
1.598409e+01
-1.388559e-01
1.617084e+01
4.790295e-02
1.627660e+01
-2.949515e-02
1.650829e+01
2.021907e-01
1.659252e+01
1.368643e-01
1.687381e+01
4.181534e-01
1.687241e+01
4.079488e-01
1.721518e+01
7.507173e-01
1.699705e+01
8.882105e-01
1.743155e+01
1.322714e+00
1.674893e+01
1.796532e+00
1.735967e+01
2.407268e+00
1.576504e+01
3.616868e+00
1.679144e+01
4.643264e+00
1.393731e+01
7.441366e+00
1.531558e+01
8.819641e+00
1.364253e+01
9.856746e+00
1.425587e+01
1.047009e+01
1.373226e+01
1.090091e+01
1.433475e+01
1.150340e+01
1.418876e+01
1.163110e+01
1.477409e+01
1.221643e+01
1.485404e+01
1.215356e+01
1.540692e+01
1.270645e+01
1.559642e+01
1.254911e+01
1.610530e+01
1.305799e+01
1.634477e+01
1.285934e+01
1.680485e+01
1.331942e+01
1.705886e+01
1.311033e+01
1.746926e+01
1.352073e+01
1.771789e+01
1.331804e+01
1.808003e+01
1.368017e+01
1.831233e+01
1.349260e+01
1.862875e+01
1.380902e+01
1.883913e+01
1.364064e+01
1.911281e+01
1.391432e+01
1.929878e+01
1.376663e+01
1.953269e+01
1.400055e+01
1.969351e+01
1.387367e+01
1.989046e+01
1.407062e+01
2.002633e+01
1.396401e+01
2.018877e+01
1.412646e+01
2.030034e+01
1.403932e+01
2.043039e+01
1.416937e+01
2.051844e+01
1.410085e+01
2.061782e+01
1.420023e+01
2.068311e+01
1.414956e+01
2.075315e+01
1.421960e+01
2.079630e+01
1.418617e+01
2.083795e+01
1.422782e+01
2.085942e+01
1.421121e+01
2.087324e+01
1.422503e+01
</DataArray>
<DataArray type="Float32" Name="V2" format="ascii">
7.166624e-01
8.200000e-01
7.187976e-01
8.219317e-01
7.187976e-01
8.219317e-01
7.251642e-01
8.277132e-01
7.251642e-01
8.277132e-01
7.357270e-01
8.373051e-01
7.357270e-01
8.373051e-01
7.504133e-01
8.506427e-01
7.504133e-01
8.506427e-01
7.691217e-01
8.676400e-01
7.691217e-01
8.676400e-01
7.917192e-01
8.881963e-01
7.917192e-01
8.881963e-01
8.180323e-01
9.122093e-01
8.180323e-01
9.122093e-01
8.478202e-01
9.395963e-01
8.478202e-01
9.395963e-01
8.807040e-01
9.703186e-01
8.807040e-01
9.703186e-01
9.159879e-01
1.004372e+00
9.159879e-01
1.004372e+00
9.524335e-01
1.041567e+00
9.524335e-01
1.041567e+00
9.885999e-01
1.078586e+00
9.885999e-01
1.078586e+00
1.020574e+00
1.110513e+00
1.020574e+00
1.110513e+00
1.049187e+00
1.139599e+00
1.049187e+00
1.139599e+00
1.074569e+00
1.165514e+00
1.074569e+00
1.165514e+00
1.097113e+00
1.188471e+00
1.097113e+00
1.188471e+00
1.117104e+00
1.208720e+00
1.117104e+00
1.208720e+00
1.134805e+00
1.226543e+00
1.134805e+00
1.226543e+00
1.150440e+00
1.242197e+00
1.150440e+00
1.242197e+00
1.164201e+00
1.255910e+00
1.164201e+00
1.255910e+00
1.176252e+00
1.267870e+00
1.176252e+00
1.267870e+00
1.186729e+00
1.278234e+00
1.186729e+00
1.278234e+00
1.195746e+00
1.287131e+00
1.195746e+00
1.287131e+00
1.203395e+00
1.294664e+00
1.203395e+00
1.294664e+00
1.209753e+00
1.300915e+00
1.209753e+00
1.300915e+00
1.214879e+00
1.305949e+00
1.214879e+00
1.305949e+00
1.218821e+00
1.309817e+00
1.218821e+00
1.309817e+00
1.221612e+00
1.312554e+00
1.221612e+00
1.312554e+00
1.223277e+00
1.314187e+00
1.223277e+00
1.314187e+00
1.223831e+00
1.314729e+00
</DataArray>
<DataArray type="Float32" Name="V3" format="ascii">
0.000000e+00
0.000000e+00
2.089343e-02
1.538575e-02
2.089343e-02
1.538575e-02
4.139427e-02
3.041210e-02
4.139427e-02
3.041210e-02
6.110854e-02
4.472472e-02
6.110854e-02
4.472472e-02
7.964465e-02
5.797724e-02
7.964465e-02
5.797724e-02
9.660983e-02
6.983997e-02
9.660983e-02
6.983997e-02
1.116048e-01
8.001141e-02
1.116048e-01
8.001141e-02
1.242126e-01
8.823538e-02
1.242126e-01
8.823538e-02
1.339790e-01
9.432140e-02
1.339790e-01
9.432140e-02
1.403910e-01
9.815227e-02
1.403910e-01
9.815227e-02
1.428883e-01
9.962352e-02
1.428883e-01
9.962352e-02
1.410867e-01
9.828767e-02
1.410867e-01
9.828767e-02
1.364678e-01
9.387518e-02
1.364678e-01
9.387518e-02
1.307390e-01
9.101578e-02
1.307390e-01
9.101578e-02
1.242923e-01
8.857325e-02
1.242923e-01
8.857325e-02
1.176671e-01
8.616163e-02
1.176671e-01
8.616163e-02
1.109089e-01
8.345844e-02
1.109089e-01
8.345844e-02
1.040281e-01
8.029251e-02
1.040281e-01
8.029251e-02
9.700400e-02
7.658649e-02
9.700400e-02
7.658649e-02
8.981351e-02
7.232201e-02
8.981351e-02
7.232201e-02
8.243949e-02
6.751562e-02
8.243949e-02
6.751562e-02
7.487353e-02
6.220357e-02
7.487353e-02
6.220357e-02
6.711582e-02
5.643247e-02
6.711582e-02
5.643247e-02
5.917396e-02
5.025380e-02
5.917396e-02
5.025380e-02
5.106143e-02
4.372078e-02
5.106143e-02
4.372078e-02
4.279623e-02
3.688663e-02
4.279623e-02
3.688663e-02
3.439974e-02
2.980384e-02
3.439974e-02
2.980384e-02
2.589579e-02
2.252384e-02
2.589579e-02
2.252384e-02
1.730992e-02
1.509698e-02
1.730992e-02
1.509698e-02
8.668846e-03
7.572753e-03
8.668846e-03
7.572753e-03
0.000000e+00
0.000000e+00
</DataArray>
<DataArray type="Float32" Name="V4" format="ascii">
8.500000e-01
1.000000e+00
8.500000e-01
1.000000e+00
8.500000e-01
1.000000e+00
8.500000e-01
1.000000e+00
8.500000e-01
1.000000e+00
8.500000e-01
1.000000e+00
8.500000e-01
1.000000e+00
8.500000e-01
1.000000e+00
8.500000e-01
1.000000e+00
8.500000e-01
1.000000e+00
8.500000e-01
1.000000e+00
8.500000e-01
1.000000e+00
8.500000e-01
1.000000e+00
8.500000e-01
1.000000e+00
8.500000e-01
1.000000e+00
8.500000e-01
1.000000e+00
8.500000e-01
1.000000e+00
8.500000e-01
1.000000e+00
8.500000e-01
1.000000e+00
8.500000e-01
1.000000e+00
8.500000e-01
1.000000e+00
8.500000e-01
1.000000e+00
8.500000e-01
1.000000e+00
8.500000e-01
1.000000e+00
8.500000e-01
1.000000e+00
8.500000e-01
1.000000e+00
8.500000e-01
1.000000e+00
8.500000e-01
1.000000e+00
8.500000e-01
1.000000e+00
8.500000e-01
1.000000e+00
8.500000e-01
1.000000e+00
8.500000e-01
1.000000e+00
8.500000e-01
1.000000e+00
8.500000e-01
1.000000e+00
8.500000e-01
1.000000e+00
8.500000e-01
1.000000e+00
8.500000e-01
1.000000e+00
8.500000e-01
1.000000e+00
8.500000e-01
1.000000e+00
8.500000e-01
1.000000e+00
8.500000e-01
1.000000e+00
8.500000e-01
1.000000e+00
8.500000e-01
1.000000e+00
8.500000e-01
1.000000e+00
8.500000e-01
1.000000e+00
8.500000e-01
1.000000e+00
8.500000e-01
1.000000e+00
8.500000e-01
1.000000e+00
8.500000e-01
1.000000e+00
8.500000e-01
1.000000e+00
8.500000e-01
1.000000e+00
8.500000e-01
1.000000e+00
8.500000e-01
1.000000e+00
8.500000e-01
1.000000e+00
8.500000e-01
1.000000e+00
8.500000e-01
1.000000e+00
8.500000e-01
1.000000e+00
8.500000e-01
1.000000e+00
8.500000e-01
1.000000e+00
8.500000e-01
1.000000e+00
</DataArray>
<DataArray type="Float32" Name="V5" format="ascii">
0.000000e+00
0.000000e+00
5.235988e-02
5.235988e-02
5.235988e-02
5.235988e-02
1.047198e-01
1.047198e-01
1.047198e-01
1.047198e-01
1.570796e-01
1.570796e-01
1.570796e-01
1.570796e-01
2.094395e-01
2.094395e-01
2.094395e-01
2.094395e-01
2.617994e-01
2.617994e-01
2.617994e-01
2.617994e-01
3.141593e-01
3.141593e-01
3.141593e-01
3.141593e-01
3.665191e-01
3.665191e-01
3.665191e-01
3.665191e-01
4.188790e-01
4.188790e-01
4.188790e-01
4.188790e-01
4.712389e-01
4.712389e-01
4.712389e-01
4.712389e-01
5.235988e-01
5.235988e-01
5.235988e-01
5.235988e-01
5.759587e-01
5.759587e-01
5.759587e-01
5.759587e-01
6.283185e-01
6.283185e-01
6.283185e-01
6.283185e-01
6.806784e-01
6.806784e-01
6.806784e-01
6.806784e-01
7.330383e-01
7.330383e-01
7.330383e-01
7.330383e-01
7.853982e-01
7.853982e-01
7.853982e-01
7.853982e-01
8.377580e-01
8.377580e-01
8.377580e-01
8.377580e-01
8.901179e-01
8.901179e-01
8.901179e-01
8.901179e-01
9.424778e-01
9.424778e-01
9.424778e-01
9.424778e-01
9.948377e-01
9.948377e-01
9.948377e-01
9.948377e-01
1.047198e+00
1.047198e+00
1.047198e+00
1.047198e+00
1.099557e+00
1.099557e+00
1.099557e+00
1.099557e+00
1.151917e+00
1.151917e+00
1.151917e+00
1.151917e+00
1.204277e+00
1.204277e+00
1.204277e+00
1.204277e+00
1.256637e+00
1.256637e+00
1.256637e+00
1.256637e+00
1.308997e+00
1.308997e+00
1.308997e+00
1.308997e+00
1.361357e+00
1.361357e+00
1.361357e+00
1.361357e+00
1.413717e+00
1.413717e+00
1.413717e+00
1.413717e+00
1.466077e+00
1.466077e+00
1.466077e+00
1.466077e+00
1.518436e+00
1.518436e+00
1.518436e+00
1.518436e+00
1.570796e+00
1.570796e+00
</DataArray>
</PointData>
</Piece></UnstructuredGrid>
</VTKFile>
