<?xml version="1.0"?>
<VTKFile type="UnstructuredGrid" version="0.1" byte_order="LittleEndian" compressor="vtkZLibDataCompressor">
<UnstructuredGrid>
<Piece NumberOfPoints="120" NumberOfCells="30">
<Points>
<DataArray type="Float32" NumberOfComponents="3" format="ascii">
0.000000e+00 9.172595e-01 0.000000e+00
0.000000e+00 1.050000e+00 0.000000e+00
4.800565e-02 9.160024e-01 0.000000e+00
5.495275e-02 1.048561e+00 0.000000e+00
4.800565e-02 9.160024e-01 0.000000e+00
5.495275e-02 1.048561e+00 0.000000e+00
9.587972e-02 9.122346e-01 0.000000e+00
1.097549e-01 1.044248e+00 0.000000e+00
9.587972e-02 9.122346e-01 0.000000e+00
1.097549e-01 1.044248e+00 0.000000e+00
1.434910e-01 9.059665e-01 0.000000e+00
1.642562e-01 1.037073e+00 0.000000e+00
1.434910e-01 9.059665e-01 0.000000e+00
1.642562e-01 1.037073e+00 0.000000e+00
1.907090e-01 8.972152e-01 0.000000e+00
2.183073e-01 1.027055e+00 0.000000e+00
1.907090e-01 8.972152e-01 0.000000e+00
2.183073e-01 1.027055e+00 0.000000e+00
2.374042e-01 8.860046e-01 0.000000e+00
2.717600e-01 1.014222e+00 0.000000e+00
2.374042e-01 8.860046e-01 0.000000e+00
2.717600e-01 1.014222e+00 0.000000e+00
2.834488e-01 8.723656e-01 0.000000e+00
3.244678e-01 9.986093e-01 0.000000e+00
2.834488e-01 8.723656e-01 0.000000e+00
3.244678e-01 9.986093e-01 0.000000e+00
3.287164e-01 8.563355e-01 0.000000e+00
3.762863e-01 9.802594e-01 0.000000e+00
3.287164e-01 8.563355e-01 0.000000e+00
3.762863e-01 9.802594e-01 0.000000e+00
3.730830e-01 8.379582e-01 0.000000e+00
4.270734e-01 9.592227e-01 0.000000e+00
3.730830e-01 8.379582e-01 0.000000e+00
4.270734e-01 9.592227e-01 0.000000e+00
4.164271e-01 8.172842e-01 0.000000e+00
4.766900e-01 9.355568e-01 0.000000e+00
4.164271e-01 8.172842e-01 0.000000e+00
4.766900e-01 9.355568e-01 0.000000e+00
4.586297e-01 7.943700e-01 0.000000e+00
5.250000e-01 9.093266e-01 0.000000e+00
4.586297e-01 7.943700e-01 0.000000e+00
5.250000e-01 9.093266e-01 0.000000e+00
4.995753e-01 7.692785e-01 0.000000e+00
5.718710e-01 8.806040e-01 0.000000e+00
4.995753e-01 7.692785e-01 0.000000e+00
5.718710e-01 8.806040e-01 0.000000e+00
5.391516e-01 7.420785e-01 0.000000e+00
6.171745e-01 8.494678e-01 0.000000e+00
5.391516e-01 7.420785e-01 0.000000e+00
6.171745e-01 8.494678e-01 0.000000e+00
5.772501e-01 7.128445e-01 0.000000e+00
6.607864e-01 8.160032e-01 0.000000e+00
5.772501e-01 7.128445e-01 0.000000e+00
6.607864e-01 8.160032e-01 0.000000e+00
6.137664e-01 6.816566e-01 0.000000e+00
7.025871e-01 7.803020e-01 0.000000e+00
6.137664e-01 6.816566e-01 0.000000e+00
7.025871e-01 7.803020e-01 0.000000e+00
6.486004e-01 6.486004e-01 0.000000e+00
7.424621e-01 7.424621e-01 0.000000e+00
6.486004e-01 6.486004e-01 0.000000e+00
7.424621e-01 7.424621e-01 0.000000e+00
6.816566e-01 6.137664e-01 0.000000e+00
7.803020e-01 7.025871e-01 0.000000e+00
6.816566e-01 6.137664e-01 0.000000e+00
7.803020e-01 7.025871e-01 0.000000e+00
7.128445e-01 5.772501e-01 0.000000e+00
8.160032e-01 6.607864e-01 0.000000e+00
7.128445e-01 5.772501e-01 0.000000e+00
8.160032e-01 6.607864e-01 0.000000e+00
7.420785e-01 5.391516e-01 0.000000e+00
8.494678e-01 6.171745e-01 0.000000e+00
7.420785e-01 5.391516e-01 0.000000e+00
8.494678e-01 6.171745e-01 0.000000e+00
7.692785e-01 4.995753e-01 0.000000e+00
8.806040e-01 5.718710e-01 0.000000e+00
7.692785e-01 4.995753e-01 0.000000e+00
8.806040e-01 5.718710e-01 0.000000e+00
7.943700e-01 4.586297e-01 0.000000e+00
9.093266e-01 5.250000e-01 0.000000e+00
7.943700e-01 4.586297e-01 0.000000e+00
9.093266e-01 5.250000e-01 0.000000e+00
8.172842e-01 4.164271e-01 0.000000e+00
9.355568e-01 4.766900e-01 0.000000e+00
8.172842e-01 4.164271e-01 0.000000e+00
9.355568e-01 4.766900e-01 0.000000e+00
8.379582e-01 3.730830e-01 0.000000e+00
9.592227e-01 4.270734e-01 0.000000e+00
8.379582e-01 3.730830e-01 0.000000e+00
9.592227e-01 4.270734e-01 0.000000e+00
8.563355e-01 3.287164e-01 0.000000e+00
9.802594e-01 3.762863e-01 0.000000e+00
8.563355e-01 3.287164e-01 0.000000e+00
9.802594e-01 3.762863e-01 0.000000e+00
8.723656e-01 2.834488e-01 0.000000e+00
9.986093e-01 3.244678e-01 0.000000e+00
8.723656e-01 2.834488e-01 0.000000e+00
9.986093e-01 3.244678e-01 0.000000e+00
8.860046e-01 2.374042e-01 0.000000e+00
1.014222e+00 2.717600e-01 0.000000e+00
8.860046e-01 2.374042e-01 0.000000e+00
1.014222e+00 2.717600e-01 0.000000e+00
8.972152e-01 1.907090e-01 0.000000e+00
1.027055e+00 2.183073e-01 0.000000e+00
8.972152e-01 1.907090e-01 0.000000e+00
1.027055e+00 2.183073e-01 0.000000e+00
9.059665e-01 1.434910e-01 0.000000e+00
1.037073e+00 1.642562e-01 0.000000e+00
9.059665e-01 1.434910e-01 0.000000e+00
1.037073e+00 1.642562e-01 0.000000e+00
9.122346e-01 9.587972e-02 0.000000e+00
1.044248e+00 1.097549e-01 0.000000e+00
9.122346e-01 9.587972e-02 0.000000e+00
1.044248e+00 1.097549e-01 0.000000e+00
9.160024e-01 4.800565e-02 0.000000e+00
1.048561e+00 5.495275e-02 0.000000e+00
9.160024e-01 4.800565e-02 0.000000e+00
1.048561e+00 5.495275e-02 0.000000e+00
9.172595e-01 4.491440e-12 0.000000e+00
1.050000e+00 5.141420e-12 0.000000e+00
</DataArray>
</Points>
<Cells>
<DataArray type="Int32" Name="connectivity" format="ascii">
0 1 3 2
4 5 7 6
8 9 11 10
12 13 15 14
16 17 19 18
20 21 23 22
24 25 27 26
28 29 31 30
32 33 35 34
36 37 39 38
40 41 43 42
44 45 47 46
48 49 51 50
52 53 55 54
56 57 59 58
60 61 63 62
64 65 67 66
68 69 71 70
72 73 75 74
76 77 79 78
80 81 83 82
84 85 87 86
88 89 91 90
92 93 95 94
96 97 99 98
100 101 103 102
104 105 107 106
108 109 111 110
112 113 115 114
116 117 119 118
</DataArray>
<DataArray type="Int32" Name="offsets" format="ascii">
4
8
12
16
20
24
28
32
36
40
44
48
52
56
60
64
68
72
76
80
84
88
92
96
100
104
108
112
116
120
</DataArray>
<DataArray type="UInt8" Name="types" format="ascii">
9
9
9
9
9
9
9
9
9
9
9
9
9
9
9
9
9
9
9
9
9
9
9
9
9
9
9
9
9
9
</DataArray>
</Cells>
<PointData>
<DataArray type="Float32" Name="V1" format="ascii">
2.776343e+00
2.640705e+00
2.776343e+00
2.640705e+00
2.776343e+00
2.640705e+00
2.776343e+00
2.640705e+00
2.776343e+00
2.640705e+00
2.776343e+00
2.640705e+00
2.776343e+00
2.640705e+00
2.776343e+00
2.640705e+00
2.776343e+00
2.640705e+00
2.776343e+00
2.640705e+00
2.776343e+00
2.640705e+00
2.776343e+00
2.640705e+00
2.776343e+00
2.640705e+00
2.776343e+00
2.640705e+00
2.776343e+00
2.640705e+00
2.776343e+00
2.640705e+00
2.776343e+00
2.640705e+00
2.776343e+00
2.640705e+00
2.776343e+00
2.640705e+00
2.776343e+00
2.640705e+00
2.776343e+00
2.640705e+00
2.776343e+00
2.640705e+00
2.776343e+00
2.640705e+00
2.776343e+00
2.640705e+00
2.776343e+00
2.640705e+00
2.776343e+00
2.640705e+00
2.776343e+00
2.640705e+00
2.776343e+00
2.640705e+00
2.776343e+00
2.640705e+00
2.776343e+00
2.640705e+00
2.776343e+00
2.640705e+00
2.776343e+00
2.640705e+00
2.776343e+00
2.640705e+00
2.776343e+00
2.640705e+00
2.776343e+00
2.640705e+00
2.776343e+00
2.640705e+00
2.776343e+00
2.640705e+00
2.776343e+00
2.640705e+00
2.776343e+00
2.640705e+00
2.776343e+00
2.640705e+00
2.776343e+00
2.640705e+00
2.776343e+00
2.640705e+00
2.776343e+00
2.640705e+00
2.776343e+00
2.640705e+00
2.776343e+00
2.640705e+00
2.776343e+00
2.640705e+00
2.776343e+00
2.640705e+00
2.776343e+00
2.640705e+00
2.776343e+00
2.640705e+00
2.776343e+00
2.640705e+00
2.776343e+00
2.640705e+00
2.776343e+00
2.640705e+00
2.776343e+00
2.640705e+00
2.776343e+00
2.640705e+00
2.776343e+00
2.640705e+00
2.776343e+00
2.640705e+00
2.776343e+00
2.640705e+00
2.776343e+00
2.640705e+00
2.776343e+00
2.640705e+00
2.776343e+00
2.640705e+00
</DataArray>
<DataArray type="Float32" Name="V2" format="ascii">
9.172595e-01
1.050000e+00
9.172595e-01
1.050000e+00
9.172595e-01
1.050000e+00
9.172595e-01
1.050000e+00
9.172595e-01
1.050000e+00
9.172595e-01
1.050000e+00
9.172595e-01
1.050000e+00
9.172595e-01
1.050000e+00
9.172595e-01
1.050000e+00
9.172595e-01
1.050000e+00
9.172595e-01
1.050000e+00
9.172595e-01
1.050000e+00
9.172595e-01
1.050000e+00
9.172595e-01
1.050000e+00
9.172595e-01
1.050000e+00
9.172595e-01
1.050000e+00
9.172595e-01
1.050000e+00
9.172595e-01
1.050000e+00
9.172595e-01
1.050000e+00
9.172595e-01
1.050000e+00
9.172595e-01
1.050000e+00
9.172595e-01
1.050000e+00
9.172595e-01
1.050000e+00
9.172595e-01
1.050000e+00
9.172595e-01
1.050000e+00
9.172595e-01
1.050000e+00
9.172595e-01
1.050000e+00
9.172595e-01
1.050000e+00
9.172595e-01
1.050000e+00
9.172595e-01
1.050000e+00
9.172595e-01
1.050000e+00
9.172595e-01
1.050000e+00
9.172595e-01
1.050000e+00
9.172595e-01
1.050000e+00
9.172595e-01
1.050000e+00
9.172595e-01
1.050000e+00
9.172595e-01
1.050000e+00
9.172595e-01
1.050000e+00
9.172595e-01
1.050000e+00
9.172595e-01
1.050000e+00
9.172595e-01
1.050000e+00
9.172595e-01
1.050000e+00
9.172595e-01
1.050000e+00
9.172595e-01
1.050000e+00
9.172595e-01
1.050000e+00
9.172595e-01
1.050000e+00
9.172595e-01
1.050000e+00
9.172595e-01
1.050000e+00
9.172595e-01
1.050000e+00
9.172595e-01
1.050000e+00
9.172595e-01
1.050000e+00
9.172595e-01
1.050000e+00
9.172595e-01
1.050000e+00
9.172595e-01
1.050000e+00
9.172595e-01
1.050000e+00
9.172595e-01
1.050000e+00
9.172595e-01
1.050000e+00
9.172595e-01
1.050000e+00
9.172595e-01
1.050000e+00
9.172595e-01
1.050000e+00
</DataArray>
<DataArray type="Float32" Name="V3" format="ascii">
0.000000e+00
0.000000e+00
4.171000e-13
-2.386680e-12
4.171000e-13
-2.386680e-12
-1.124900e-13
-2.509450e-12
-1.124900e-13
-2.509450e-12
9.735000e-14
-2.207520e-12
9.735000e-14
-2.207520e-12
2.731000e-13
-2.012580e-12
2.731000e-13
-2.012580e-12
3.807100e-13
-1.908680e-12
3.807100e-13
-1.908680e-12
4.496800e-13
-1.853240e-12
4.496800e-13
-1.853240e-12
4.972300e-13
-1.823480e-12
4.972300e-13
-1.823480e-12
5.288900e-13
-1.814350e-12
5.288900e-13
-1.814350e-12
5.508900e-13
-1.818590e-12
5.508900e-13
-1.818590e-12
5.650400e-13
-1.835950e-12
5.650400e-13
-1.835950e-12
5.726400e-13
-1.865490e-12
5.726400e-13
-1.865490e-12
5.748800e-13
-1.907020e-12
5.748800e-13
-1.907020e-12
5.717800e-13
-1.961890e-12
5.717800e-13
-1.961890e-12
5.620500e-13
-2.031150e-12
5.620500e-13
-2.031150e-12
5.459300e-13
-2.115680e-12
5.459300e-13
-2.115680e-12
5.230500e-13
-2.217240e-12
5.230500e-13
-2.217240e-12
4.905800e-13
-2.336820e-12
4.905800e-13
-2.336820e-12
4.462600e-13
-2.477770e-12
4.462600e-13
-2.477770e-12
3.878200e-13
-2.640940e-12
3.878200e-13
-2.640940e-12
3.116400e-13
-2.826520e-12
3.116400e-13
-2.826520e-12
2.116900e-13
-3.037330e-12
2.116900e-13
-3.037330e-12
8.012000e-14
-3.273590e-12
8.012000e-14
-3.273590e-12
-8.965000e-14
-3.530210e-12
-8.965000e-14
-3.530210e-12
-3.097300e-13
-3.803670e-12
-3.097300e-13
-3.803670e-12
-5.954800e-13
-4.083820e-12
-5.954800e-13
-4.083820e-12
-9.702800e-13
-4.358370e-12
-9.702800e-13
-4.358370e-12
-1.450720e-12
-4.592000e-12
-1.450720e-12
-4.592000e-12
-1.922960e-12
-4.582470e-12
-1.922960e-12
-4.582470e-12
-1.260530e-12
-3.242530e-12
-1.260530e-12
-3.242530e-12
0.000000e+00
0.000000e+00
</DataArray>
<DataArray type="Float32" Name="V4" format="ascii">
8.500000e-01
1.000000e+00
8.500000e-01
1.000000e+00
8.500000e-01
1.000000e+00
8.500000e-01
1.000000e+00
8.500000e-01
1.000000e+00
8.500000e-01
1.000000e+00
8.500000e-01
1.000000e+00
8.500000e-01
1.000000e+00
8.500000e-01
1.000000e+00
8.500000e-01
1.000000e+00
8.500000e-01
1.000000e+00
8.500000e-01
1.000000e+00
8.500000e-01
1.000000e+00
8.500000e-01
1.000000e+00
8.500000e-01
1.000000e+00
8.500000e-01
1.000000e+00
8.500000e-01
1.000000e+00
8.500000e-01
1.000000e+00
8.500000e-01
1.000000e+00
8.500000e-01
1.000000e+00
8.500000e-01
1.000000e+00
8.500000e-01
1.000000e+00
8.500000e-01
1.000000e+00
8.500000e-01
1.000000e+00
8.500000e-01
1.000000e+00
8.500000e-01
1.000000e+00
8.500000e-01
1.000000e+00
8.500000e-01
1.000000e+00
8.500000e-01
1.000000e+00
8.500000e-01
1.000000e+00
8.500000e-01
1.000000e+00
8.500000e-01
1.000000e+00
8.500000e-01
1.000000e+00
8.500000e-01
1.000000e+00
8.500000e-01
1.000000e+00
8.500000e-01
1.000000e+00
8.500000e-01
1.000000e+00
8.500000e-01
1.000000e+00
8.500000e-01
1.000000e+00
8.500000e-01
1.000000e+00
8.500000e-01
1.000000e+00
8.500000e-01
1.000000e+00
8.500000e-01
1.000000e+00
8.500000e-01
1.000000e+00
8.500000e-01
1.000000e+00
8.500000e-01
1.000000e+00
8.500000e-01
1.000000e+00
8.500000e-01
1.000000e+00
8.500000e-01
1.000000e+00
8.500000e-01
1.000000e+00
8.500000e-01
1.000000e+00
8.500000e-01
1.000000e+00
8.500000e-01
1.000000e+00
8.500000e-01
1.000000e+00
8.500000e-01
1.000000e+00
8.500000e-01
1.000000e+00
8.500000e-01
1.000000e+00
8.500000e-01
1.000000e+00
8.500000e-01
1.000000e+00
8.500000e-01
1.000000e+00
</DataArray>
<DataArray type="Float32" Name="V5" format="ascii">
0.000000e+00
0.000000e+00
5.235988e-02
5.235988e-02
5.235988e-02
5.235988e-02
1.047198e-01
1.047198e-01
1.047198e-01
1.047198e-01
1.570796e-01
1.570796e-01
1.570796e-01
1.570796e-01
2.094395e-01
2.094395e-01
2.094395e-01
2.094395e-01
2.617994e-01
2.617994e-01
2.617994e-01
2.617994e-01
3.141593e-01
3.141593e-01
3.141593e-01
3.141593e-01
3.665191e-01
3.665191e-01
3.665191e-01
3.665191e-01
4.188790e-01
4.188790e-01
4.188790e-01
4.188790e-01
4.712389e-01
4.712389e-01
4.712389e-01
4.712389e-01
5.235988e-01
5.235988e-01
5.235988e-01
5.235988e-01
5.759587e-01
5.759587e-01
5.759587e-01
5.759587e-01
6.283185e-01
6.283185e-01
6.283185e-01
6.283185e-01
6.806784e-01
6.806784e-01
6.806784e-01
6.806784e-01
7.330383e-01
7.330383e-01
7.330383e-01
7.330383e-01
7.853982e-01
7.853982e-01
7.853982e-01
7.853982e-01
8.377580e-01
8.377580e-01
8.377580e-01
8.377580e-01
8.901179e-01
8.901179e-01
8.901179e-01
8.901179e-01
9.424778e-01
9.424778e-01
9.424778e-01
9.424778e-01
9.948377e-01
9.948377e-01
9.948377e-01
9.948377e-01
1.047198e+00
1.047198e+00
1.047198e+00
1.047198e+00
1.099557e+00
1.099557e+00
1.099557e+00
1.099557e+00
1.151917e+00
1.151917e+00
1.151917e+00
1.151917e+00
1.204277e+00
1.204277e+00
1.204277e+00
1.204277e+00
1.256637e+00
1.256637e+00
1.256637e+00
1.256637e+00
1.308997e+00
1.308997e+00
1.308997e+00
1.308997e+00
1.361357e+00
1.361357e+00
1.361357e+00
1.361357e+00
1.413717e+00
1.413717e+00
1.413717e+00
1.413717e+00
1.466077e+00
1.466077e+00
1.466077e+00
1.466077e+00
1.518436e+00
1.518436e+00
1.518436e+00
1.518436e+00
1.570796e+00
1.570796e+00
</DataArray>
</PointData>
</Piece></UnstructuredGrid>
</VTKFile>
