<?xml version="1.0"?>
<VTKFile type="UnstructuredGrid" version="0.1" byte_order="LittleEndian" compressor="vtkZLibDataCompressor">
<UnstructuredGrid>
<Piece NumberOfPoints="120" NumberOfCells="30">
<Points>
<DataArray type="Float32" NumberOfComponents="3" format="ascii">
0.000000e+00 1.004719e+00 0.000000e+00
0.000000e+00 1.110000e+00 0.000000e+00
5.595510e-02 1.004655e+00 0.000000e+00
5.963424e-02 1.110000e+00 0.000000e+00
5.595510e-02 1.004655e+00 0.000000e+00
5.963424e-02 1.110000e+00 0.000000e+00
1.112923e-01 1.003972e+00 0.000000e+00
1.193605e-01 1.110000e+00 0.000000e+00
1.112923e-01 1.003972e+00 0.000000e+00
1.193605e-01 1.110000e+00 0.000000e+00
1.661929e-01 1.002010e+00 0.000000e+00
1.785444e-01 1.109148e+00 0.000000e+00
1.661929e-01 1.002010e+00 0.000000e+00
1.785444e-01 1.109148e+00 0.000000e+00
2.203051e-01 9.964118e-01 0.000000e+00
2.373933e-01 1.102898e+00 0.000000e+00
2.203051e-01 9.964118e-01 0.000000e+00
2.373933e-01 1.102898e+00 0.000000e+00
2.734789e-01 9.875025e-01 0.000000e+00
2.961928e-01 1.092653e+00 0.000000e+00
2.734789e-01 9.875025e-01 0.000000e+00
2.961928e-01 1.092653e+00 0.000000e+00
3.258971e-01 9.751834e-01 0.000000e+00
3.544812e-01 1.078666e+00 0.000000e+00
3.258971e-01 9.751834e-01 0.000000e+00
3.544812e-01 1.078666e+00 0.000000e+00
3.774828e-01 9.596325e-01 0.000000e+00
4.119221e-01 1.061130e+00 0.000000e+00
3.774828e-01 9.596325e-01 0.000000e+00
4.119221e-01 1.061130e+00 0.000000e+00
4.281035e-01 9.409876e-01 0.000000e+00
4.682646e-01 1.040202e+00 0.000000e+00
4.281035e-01 9.409876e-01 0.000000e+00
4.682646e-01 1.040202e+00 0.000000e+00
4.776128e-01 9.193781e-01 0.000000e+00
5.233115e-01 1.016030e+00 0.000000e+00
4.776128e-01 9.193781e-01 0.000000e+00
5.233115e-01 1.016030e+00 0.000000e+00
5.258630e-01 8.949270e-01 0.000000e+00
5.768930e-01 9.887548e-01 0.000000e+00
5.258630e-01 8.949270e-01 0.000000e+00
5.768930e-01 9.887548e-01 0.000000e+00
5.727100e-01 8.677533e-01 0.000000e+00
6.288554e-01 9.585082e-01 0.000000e+00
5.727100e-01 8.677533e-01 0.000000e+00
6.288554e-01 9.585082e-01 0.000000e+00
6.180155e-01 8.379743e-01 0.000000e+00
6.790552e-01 9.254198e-01 0.000000e+00
6.180155e-01 8.379743e-01 0.000000e+00
6.790552e-01 9.254198e-01 0.000000e+00
6.616470e-01 8.057072e-01 0.000000e+00
7.273567e-01 8.896173e-01 0.000000e+00
6.616470e-01 8.057072e-01 0.000000e+00
7.273567e-01 8.896173e-01 0.000000e+00
7.034790e-01 7.710696e-01 0.000000e+00
7.736306e-01 8.512285e-01 0.000000e+00
7.034790e-01 7.710696e-01 0.000000e+00
7.736306e-01 8.512285e-01 0.000000e+00
7.433920e-01 7.341810e-01 0.000000e+00
8.177534e-01 8.103830e-01 0.000000e+00
7.433920e-01 7.341810e-01 0.000000e+00
8.177534e-01 8.103830e-01 0.000000e+00
7.812734e-01 6.951628e-01 0.000000e+00
8.596079e-01 7.672124e-01 0.000000e+00
7.812734e-01 6.951628e-01 0.000000e+00
8.596079e-01 7.672124e-01 0.000000e+00
8.170170e-01 6.541392e-01 0.000000e+00
8.990827e-01 7.218513e-01 0.000000e+00
8.170170e-01 6.541392e-01 0.000000e+00
8.990827e-01 7.218513e-01 0.000000e+00
8.505231e-01 6.112373e-01 0.000000e+00
9.360726e-01 6.744377e-01 0.000000e+00
8.505231e-01 6.112373e-01 0.000000e+00
9.360726e-01 6.744377e-01 0.000000e+00
8.816989e-01 5.665870e-01 0.000000e+00
9.704791e-01 6.251129e-01 0.000000e+00
8.816989e-01 5.665870e-01 0.000000e+00
9.704791e-01 6.251129e-01 0.000000e+00
9.104581e-01 5.203213e-01 0.000000e+00
1.002210e+00 5.740217e-01 0.000000e+00
9.104581e-01 5.203213e-01 0.000000e+00
1.002210e+00 5.740217e-01 0.000000e+00
9.367216e-01 4.725763e-01 0.000000e+00
1.031182e+00 5.213122e-01 0.000000e+00
9.367216e-01 4.725763e-01 0.000000e+00
1.031182e+00 5.213122e-01 0.000000e+00
9.604173e-01 4.234910e-01 0.000000e+00
1.057316e+00 4.671361e-01 0.000000e+00
9.604173e-01 4.234910e-01 0.000000e+00
1.057316e+00 4.671361e-01 0.000000e+00
9.814800e-01 3.732068e-01 0.000000e+00
1.080543e+00 4.116480e-01 0.000000e+00
9.814800e-01 3.732068e-01 0.000000e+00
1.080543e+00 4.116480e-01 0.000000e+00
9.998523e-01 3.218678e-01 0.000000e+00
1.100800e+00 3.550053e-01 0.000000e+00
9.998523e-01 3.218678e-01 0.000000e+00
1.100800e+00 3.550053e-01 0.000000e+00
1.015484e+00 2.696205e-01 0.000000e+00
1.118034e+00 2.973679e-01 0.000000e+00
1.015484e+00 2.696205e-01 0.000000e+00
1.118034e+00 2.973679e-01 0.000000e+00
1.028332e+00 2.166130e-01 0.000000e+00
1.132197e+00 2.388983e-01 0.000000e+00
1.028332e+00 2.166130e-01 0.000000e+00
1.132197e+00 2.388983e-01 0.000000e+00
1.038361e+00 1.629955e-01 0.000000e+00
1.143253e+00 1.797604e-01 0.000000e+00
1.038361e+00 1.629955e-01 0.000000e+00
1.143253e+00 1.797604e-01 0.000000e+00
1.045545e+00 1.089191e-01 0.000000e+00
1.151171e+00 1.201201e-01 0.000000e+00
1.045545e+00 1.089191e-01 0.000000e+00
1.151171e+00 1.201201e-01 0.000000e+00
1.049862e+00 5.453623e-02 0.000000e+00
1.155931e+00 6.014405e-02 0.000000e+00
1.049862e+00 5.453623e-02 0.000000e+00
1.155931e+00 6.014405e-02 0.000000e+00
1.051303e+00 5.147800e-12 0.000000e+00
1.157519e+00 5.667890e-12 0.000000e+00
</DataArray>
</Points>
<Cells>
<DataArray type="Int32" Name="connectivity" format="ascii">
0 1 3 2
4 5 7 6
8 9 11 10
12 13 15 14
16 17 19 18
20 21 23 22
24 25 27 26
28 29 31 30
32 33 35 34
36 37 39 38
40 41 43 42
44 45 47 46
48 49 51 50
52 53 55 54
56 57 59 58
60 61 63 62
64 65 67 66
68 69 71 70
72 73 75 74
76 77 79 78
80 81 83 82
84 85 87 86
88 89 91 90
92 93 95 94
96 97 99 98
100 101 103 102
104 105 107 106
108 109 111 110
112 113 115 114
116 117 119 118
</DataArray>
<DataArray type="Int32" Name="offsets" format="ascii">
4
8
12
16
20
24
28
32
36
40
44
48
52
56
60
64
68
72
76
80
84
88
92
96
100
104
108
112
116
120
</DataArray>
<DataArray type="UInt8" Name="types" format="ascii">
9
9
9
9
9
9
9
9
9
9
9
9
9
9
9
9
9
9
9
9
9
9
9
9
9
9
9
9
9
9
</DataArray>
</Cells>
<PointData>
<DataArray type="Float32" Name="V1" format="ascii">
1.257608e+01
2.517082e+00
1.272503e+01
2.666036e+00
1.193723e+01
3.208953e+00
1.234966e+01
3.621379e+00
1.071068e+01
5.073508e+00
1.140514e+01
5.767961e+00
1.017681e+01
6.739764e+00
1.038728e+01
6.950233e+00
9.947370e+00
7.252238e+00
1.004161e+01
7.346483e+00
9.836883e+00
7.508206e+00
9.912594e+00
7.583918e+00
9.821699e+00
7.657428e+00
9.885503e+00
7.721232e+00
9.849377e+00
7.750450e+00
9.903188e+00
7.804261e+00
9.894790e+00
7.811058e+00
9.940340e+00
7.856608e+00
9.945460e+00
7.852494e+00
9.984176e+00
7.891210e+00
9.995437e+00
7.882167e+00
1.002849e+01
7.915215e+00
1.004204e+01
7.904350e+00
1.007037e+01
7.932674e+00
1.008425e+01
7.921567e+00
1.010861e+01
7.945929e+00
1.012186e+01
7.935348e+00
1.014288e+01
7.956365e+00
1.015507e+01
7.946648e+00
1.017324e+01
7.964821e+00
1.018422e+01
7.956083e+00
1.019996e+01
7.971824e+00
1.020971e+01
7.964064e+00
1.022336e+01
7.977710e+00
1.023196e+01
7.970877e+00
1.024379e+01
7.982705e+00
1.025132e+01
7.976726e+00
1.026156e+01
7.986968e+00
1.026812e+01
7.981763e+00
1.027697e+01
7.990610e+00
1.028265e+01
7.986104e+00
1.029027e+01
7.993716e+00
1.029516e+01
7.989841e+00
1.030167e+01
7.996351e+00
1.030584e+01
7.993045e+00
1.031136e+01
7.998562e+00
1.031488e+01
7.995774e+00
1.031950e+01
8.000391e+00
1.032242e+01
7.998077e+00
1.032621e+01
8.001868e+00
1.032858e+01
7.999992e+00
1.033161e+01
8.003016e+00
1.033346e+01
8.001548e+00
1.033577e+01
8.003854e+00
1.033714e+01
8.002773e+00
1.033876e+01
8.004395e+00
1.033966e+01
8.003683e+00
1.034062e+01
8.004647e+00
1.034107e+01
8.004293e+00
1.034139e+01
8.004613e+00
</DataArray>
<DataArray type="Float32" Name="V2" format="ascii">
1.004719e+00
1.110000e+00
1.006207e+00
1.111600e+00
1.006207e+00
1.111600e+00
1.010106e+00
1.116396e+00
1.010106e+00
1.116396e+00
1.015672e+00
1.123423e+00
1.015672e+00
1.123423e+00
1.020442e+00
1.128154e+00
1.020442e+00
1.128154e+00
1.024636e+00
1.132082e+00
1.024636e+00
1.132082e+00
1.028162e+00
1.135414e+00
1.028162e+00
1.135414e+00
1.031172e+00
1.138270e+00
1.031172e+00
1.138270e+00
1.033760e+00
1.140732e+00
1.033760e+00
1.140732e+00
1.036004e+00
1.142868e+00
1.036004e+00
1.142868e+00
1.037961e+00
1.144733e+00
1.037961e+00
1.144733e+00
1.039679e+00
1.146372e+00
1.039679e+00
1.146372e+00
1.041196e+00
1.147819e+00
1.041196e+00
1.147819e+00
1.042540e+00
1.149103e+00
1.042540e+00
1.149103e+00
1.043736e+00
1.150246e+00
1.043736e+00
1.150246e+00
1.044802e+00
1.151266e+00
1.044802e+00
1.151266e+00
1.045754e+00
1.152178e+00
1.045754e+00
1.152178e+00
1.046605e+00
1.152994e+00
1.046605e+00
1.152994e+00
1.047364e+00
1.153723e+00
1.047364e+00
1.153723e+00
1.048040e+00
1.154373e+00
1.048040e+00
1.154373e+00
1.048641e+00
1.154951e+00
1.048641e+00
1.154951e+00
1.049170e+00
1.155461e+00
1.049170e+00
1.155461e+00
1.049634e+00
1.155908e+00
1.049634e+00
1.155908e+00
1.050036e+00
1.156295e+00
1.050036e+00
1.156295e+00
1.050379e+00
1.156626e+00
1.050379e+00
1.156626e+00
1.050665e+00
1.156902e+00
1.050665e+00
1.156902e+00
1.050897e+00
1.157126e+00
1.050897e+00
1.157126e+00
1.051075e+00
1.157298e+00
1.051075e+00
1.157298e+00
1.051202e+00
1.157421e+00
1.051202e+00
1.157421e+00
1.051278e+00
1.157494e+00
1.051278e+00
1.157494e+00
1.051303e+00
1.157519e+00
</DataArray>
<DataArray type="Float32" Name="V3" format="ascii">
0.000000e+00
0.000000e+00
3.298819e-03
1.459606e-03
3.298819e-03
1.459606e-03
5.738888e-03
2.680050e-03
5.738888e-03
2.680050e-03
7.397892e-03
2.837303e-03
7.397892e-03
2.837303e-03
8.325290e-03
2.900377e-03
8.325290e-03
2.900377e-03
8.575889e-03
3.300955e-03
8.575889e-03
3.300955e-03
8.598357e-03
3.805382e-03
8.598357e-03
3.805382e-03
8.509046e-03
4.287279e-03
8.509046e-03
4.287279e-03
8.357899e-03
4.692714e-03
8.357899e-03
4.692714e-03
8.167180e-03
5.005809e-03
8.167180e-03
5.005809e-03
7.947209e-03
5.226602e-03
7.947209e-03
5.226602e-03
7.702743e-03
5.361533e-03
7.702743e-03
5.361533e-03
7.436049e-03
5.419119e-03
7.436049e-03
5.419119e-03
7.148342e-03
5.408067e-03
7.148342e-03
5.408067e-03
6.840466e-03
5.336499e-03
6.840466e-03
5.336499e-03
6.513191e-03
5.211693e-03
6.513191e-03
5.211693e-03
6.167336e-03
5.040060e-03
6.167336e-03
5.040060e-03
5.803808e-03
4.827217e-03
5.803808e-03
4.827217e-03
5.423607e-03
4.578093e-03
5.423607e-03
4.578093e-03
5.027815e-03
4.297034e-03
5.027815e-03
4.297034e-03
4.617581e-03
3.987909e-03
4.617581e-03
3.987909e-03
4.194108e-03
3.654196e-03
4.194108e-03
3.654196e-03
3.758639e-03
3.299051e-03
3.758639e-03
3.299051e-03
3.312451e-03
2.925374e-03
3.312451e-03
2.925374e-03
2.856843e-03
2.535856e-03
2.856843e-03
2.535856e-03
2.393133e-03
2.133026e-03
2.393133e-03
2.133026e-03
1.922654e-03
1.719279e-03
1.922654e-03
1.719279e-03
1.446748e-03
1.296909e-03
1.446748e-03
1.296909e-03
9.667657e-04
8.681366e-04
9.667657e-04
8.681366e-04
4.840633e-04
4.351239e-04
4.840633e-04
4.351239e-04
0.000000e+00
0.000000e+00
</DataArray>
<DataArray type="Float32" Name="V4" format="ascii">
8.500000e-01
1.000000e+00
8.500000e-01
1.000000e+00
8.500000e-01
1.000000e+00
8.500000e-01
1.000000e+00
8.500000e-01
1.000000e+00
8.500000e-01
1.000000e+00
8.500000e-01
1.000000e+00
8.500000e-01
1.000000e+00
8.500000e-01
1.000000e+00
8.500000e-01
1.000000e+00
8.500000e-01
1.000000e+00
8.500000e-01
1.000000e+00
8.500000e-01
1.000000e+00
8.500000e-01
1.000000e+00
8.500000e-01
1.000000e+00
8.500000e-01
1.000000e+00
8.500000e-01
1.000000e+00
8.500000e-01
1.000000e+00
8.500000e-01
1.000000e+00
8.500000e-01
1.000000e+00
8.500000e-01
1.000000e+00
8.500000e-01
1.000000e+00
8.500000e-01
1.000000e+00
8.500000e-01
1.000000e+00
8.500000e-01
1.000000e+00
8.500000e-01
1.000000e+00
8.500000e-01
1.000000e+00
8.500000e-01
1.000000e+00
8.500000e-01
1.000000e+00
8.500000e-01
1.000000e+00
8.500000e-01
1.000000e+00
8.500000e-01
1.000000e+00
8.500000e-01
1.000000e+00
8.500000e-01
1.000000e+00
8.500000e-01
1.000000e+00
8.500000e-01
1.000000e+00
8.500000e-01
1.000000e+00
8.500000e-01
1.000000e+00
8.500000e-01
1.000000e+00
8.500000e-01
1.000000e+00
8.500000e-01
1.000000e+00
8.500000e-01
1.000000e+00
8.500000e-01
1.000000e+00
8.500000e-01
1.000000e+00
8.500000e-01
1.000000e+00
8.500000e-01
1.000000e+00
8.500000e-01
1.000000e+00
8.500000e-01
1.000000e+00
8.500000e-01
1.000000e+00
8.500000e-01
1.000000e+00
8.500000e-01
1.000000e+00
8.500000e-01
1.000000e+00
8.500000e-01
1.000000e+00
8.500000e-01
1.000000e+00
8.500000e-01
1.000000e+00
8.500000e-01
1.000000e+00
8.500000e-01
1.000000e+00
8.500000e-01
1.000000e+00
8.500000e-01
1.000000e+00
8.500000e-01
1.000000e+00
</DataArray>
<DataArray type="Float32" Name="V5" format="ascii">
0.000000e+00
0.000000e+00
5.235988e-02
5.235988e-02
5.235988e-02
5.235988e-02
1.047198e-01
1.047198e-01
1.047198e-01
1.047198e-01
1.570796e-01
1.570796e-01
1.570796e-01
1.570796e-01
2.094395e-01
2.094395e-01
2.094395e-01
2.094395e-01
2.617994e-01
2.617994e-01
2.617994e-01
2.617994e-01
3.141593e-01
3.141593e-01
3.141593e-01
3.141593e-01
3.665191e-01
3.665191e-01
3.665191e-01
3.665191e-01
4.188790e-01
4.188790e-01
4.188790e-01
4.188790e-01
4.712389e-01
4.712389e-01
4.712389e-01
4.712389e-01
5.235988e-01
5.235988e-01
5.235988e-01
5.235988e-01
5.759587e-01
5.759587e-01
5.759587e-01
5.759587e-01
6.283185e-01
6.283185e-01
6.283185e-01
6.283185e-01
6.806784e-01
6.806784e-01
6.806784e-01
6.806784e-01
7.330383e-01
7.330383e-01
7.330383e-01
7.330383e-01
7.853982e-01
7.853982e-01
7.853982e-01
7.853982e-01
8.377580e-01
8.377580e-01
8.377580e-01
8.377580e-01
8.901179e-01
8.901179e-01
8.901179e-01
8.901179e-01
9.424778e-01
9.424778e-01
9.424778e-01
9.424778e-01
9.948377e-01
9.948377e-01
9.948377e-01
9.948377e-01
1.047198e+00
1.047198e+00
1.047198e+00
1.047198e+00
1.099557e+00
1.099557e+00
1.099557e+00
1.099557e+00
1.151917e+00
1.151917e+00
1.151917e+00
1.151917e+00
1.204277e+00
1.204277e+00
1.204277e+00
1.204277e+00
1.256637e+00
1.256637e+00
1.256637e+00
1.256637e+00
1.308997e+00
1.308997e+00
1.308997e+00
1.308997e+00
1.361357e+00
1.361357e+00
1.361357e+00
1.361357e+00
1.413717e+00
1.413717e+00
1.413717e+00
1.413717e+00
1.466077e+00
1.466077e+00
1.466077e+00
1.466077e+00
1.518436e+00
1.518436e+00
1.518436e+00
1.518436e+00
1.570796e+00
1.570796e+00
</DataArray>
</PointData>
</Piece></UnstructuredGrid>
</VTKFile>
