<?xml version="1.0"?>
<VTKFile type="UnstructuredGrid" version="0.1" byte_order="LittleEndian" compressor="vtkZLibDataCompressor">
<UnstructuredGrid>
<Piece NumberOfPoints="120" NumberOfCells="30">
<Points>
<DataArray type="Float32" NumberOfComponents="3" format="ascii">
0.000000e+00 5.638815e-01 0.000000e+00
0.000000e+00 6.500000e-01 0.000000e+00
6.404154e-02 5.639291e-01 0.000000e+00
6.395936e-02 6.500000e-01 0.000000e+00
6.404154e-02 5.639291e-01 0.000000e+00
6.395936e-02 6.500000e-01 0.000000e+00
1.280804e-01 5.640373e-01 0.000000e+00
1.279151e-01 6.500000e-01 0.000000e+00
1.280804e-01 5.640373e-01 0.000000e+00
1.279151e-01 6.500000e-01 0.000000e+00
1.921108e-01 5.642175e-01 0.000000e+00
1.918641e-01 6.500000e-01 0.000000e+00
1.921108e-01 5.642175e-01 0.000000e+00
1.918641e-01 6.500000e-01 0.000000e+00
2.561284e-01 5.644689e-01 0.000000e+00
2.558029e-01 6.500000e-01 0.000000e+00
2.561284e-01 5.644689e-01 0.000000e+00
2.558029e-01 6.500000e-01 0.000000e+00
3.201281e-01 5.647906e-01 0.000000e+00
3.197280e-01 6.500000e-01 0.000000e+00
3.201281e-01 5.647906e-01 0.000000e+00
3.197280e-01 6.500000e-01 0.000000e+00
3.841037e-01 5.651816e-01 0.000000e+00
3.836366e-01 6.500000e-01 0.000000e+00
3.841037e-01 5.651816e-01 0.000000e+00
3.836366e-01 6.500000e-01 0.000000e+00
4.480473e-01 5.656408e-01 0.000000e+00
4.475272e-01 6.500000e-01 0.000000e+00
4.480473e-01 5.656408e-01 0.000000e+00
4.475272e-01 6.500000e-01 0.000000e+00
5.119482e-01 5.661674e-01 0.000000e+00
5.114012e-01 6.500000e-01 0.000000e+00
5.119482e-01 5.661674e-01 0.000000e+00
5.114012e-01 6.500000e-01 0.000000e+00
5.757911e-01 5.667612e-01 0.000000e+00
5.752665e-01 6.500000e-01 0.000000e+00
5.757911e-01 5.667612e-01 0.000000e+00
5.752665e-01 6.500000e-01 0.000000e+00
6.395525e-01 5.674231e-01 0.000000e+00
6.391437e-01 6.500000e-01 0.000000e+00
6.395525e-01 5.674231e-01 0.000000e+00
6.391437e-01 6.500000e-01 0.000000e+00
7.031930e-01 5.681561e-01 0.000000e+00
7.030783e-01 6.500000e-01 0.000000e+00
7.031930e-01 5.681561e-01 0.000000e+00
7.030783e-01 6.500000e-01 0.000000e+00
7.666440e-01 5.689646e-01 0.000000e+00
7.671609e-01 6.500000e-01 0.000000e+00
7.666440e-01 5.689646e-01 0.000000e+00
7.671609e-01 6.500000e-01 0.000000e+00
8.297787e-01 5.698508e-01 0.000000e+00
8.315594e-01 6.500000e-01 0.000000e+00
8.297787e-01 5.698508e-01 0.000000e+00
8.315594e-01 6.500000e-01 0.000000e+00
8.923526e-01 5.707932e-01 0.000000e+00
8.965507e-01 6.500000e-01 0.000000e+00
8.923526e-01 5.707932e-01 0.000000e+00
8.965507e-01 6.500000e-01 0.000000e+00
9.538800e-01 5.716260e-01 0.000000e+00
9.624744e-01 6.500000e-01 0.000000e+00
9.538800e-01 5.716260e-01 0.000000e+00
9.624744e-01 6.500000e-01 0.000000e+00
1.013830e+00 5.719764e-01 0.000000e+00
1.028776e+00 6.500000e-01 0.000000e+00
1.013830e+00 5.719764e-01 0.000000e+00
1.028776e+00 6.500000e-01 0.000000e+00
1.072469e+00 5.676739e-01 0.000000e+00
1.092978e+00 6.439230e-01 0.000000e+00
1.072469e+00 5.676739e-01 0.000000e+00
1.092978e+00 6.439230e-01 0.000000e+00
1.128188e+00 5.538508e-01 0.000000e+00
1.155878e+00 6.264889e-01 0.000000e+00
1.128188e+00 5.538508e-01 0.000000e+00
1.155878e+00 6.264889e-01 0.000000e+00
1.180778e+00 5.321809e-01 0.000000e+00
1.216229e+00 6.002248e-01 0.000000e+00
1.180778e+00 5.321809e-01 0.000000e+00
1.216229e+00 6.002248e-01 0.000000e+00
1.229784e+00 5.033840e-01 0.000000e+00
1.272558e+00 5.660404e-01 0.000000e+00
1.229784e+00 5.033840e-01 0.000000e+00
1.272558e+00 5.660404e-01 0.000000e+00
1.274825e+00 4.684469e-01 0.000000e+00
1.324081e+00 5.251628e-01 0.000000e+00
1.274825e+00 4.684469e-01 0.000000e+00
1.324081e+00 5.251628e-01 0.000000e+00
1.315593e+00 4.282445e-01 0.000000e+00
1.370371e+00 4.787034e-01 0.000000e+00
1.315593e+00 4.282445e-01 0.000000e+00
1.370371e+00 4.787034e-01 0.000000e+00
1.351865e+00 3.835847e-01 0.000000e+00
1.411231e+00 4.276424e-01 0.000000e+00
1.351865e+00 3.835847e-01 0.000000e+00
1.411231e+00 4.276424e-01 0.000000e+00
1.383484e+00 3.351985e-01 0.000000e+00
1.446589e+00 3.728215e-01 0.000000e+00
1.383484e+00 3.351985e-01 0.000000e+00
1.446589e+00 3.728215e-01 0.000000e+00
1.410347e+00 2.837469e-01 0.000000e+00
1.476437e+00 3.149640e-01 0.000000e+00
1.410347e+00 2.837469e-01 0.000000e+00
1.476437e+00 3.149640e-01 0.000000e+00
1.432387e+00 2.298304e-01 0.000000e+00
1.500798e+00 2.546987e-01 0.000000e+00
1.432387e+00 2.298304e-01 0.000000e+00
1.500798e+00 2.546987e-01 0.000000e+00
1.449560e+00 1.739992e-01 0.000000e+00
1.519701e+00 1.925822e-01 0.000000e+00
1.449560e+00 1.739992e-01 0.000000e+00
1.519701e+00 1.925822e-01 0.000000e+00
1.461841e+00 1.167648e-01 0.000000e+00
1.533179e+00 1.291189e-01 0.000000e+00
1.461841e+00 1.167648e-01 0.000000e+00
1.533179e+00 1.291189e-01 0.000000e+00
1.469215e+00 5.861017e-02 0.000000e+00
1.541255e+00 6.477647e-02 0.000000e+00
1.469215e+00 5.861017e-02 0.000000e+00
1.541255e+00 6.477647e-02 0.000000e+00
1.471674e+00 7.206180e-12 0.000000e+00
1.543945e+00 7.560070e-12 0.000000e+00
</DataArray>
</Points>
<Cells>
<DataArray type="Int32" Name="connectivity" format="ascii">
0 1 3 2
4 5 7 6
8 9 11 10
12 13 15 14
16 17 19 18
20 21 23 22
24 25 27 26
28 29 31 30
32 33 35 34
36 37 39 38
40 41 43 42
44 45 47 46
48 49 51 50
52 53 55 54
56 57 59 58
60 61 63 62
64 65 67 66
68 69 71 70
72 73 75 74
76 77 79 78
80 81 83 82
84 85 87 86
88 89 91 90
92 93 95 94
96 97 99 98
100 101 103 102
104 105 107 106
108 109 111 110
112 113 115 114
116 117 119 118
</DataArray>
<DataArray type="Int32" Name="offsets" format="ascii">
4
8
12
16
20
24
28
32
36
40
44
48
52
56
60
64
68
72
76
80
84
88
92
96
100
104
108
112
116
120
</DataArray>
<DataArray type="UInt8" Name="types" format="ascii">
9
9
9
9
9
9
9
9
9
9
9
9
9
9
9
9
9
9
9
9
9
9
9
9
9
9
9
9
9
9
</DataArray>
</Cells>
<PointData>
<DataArray type="Float32" Name="V1" format="ascii">
2.994688e+01
-4.194392e-01
2.998465e+01
-3.816741e-01
3.004307e+01
-4.200999e-01
3.014659e+01
-3.165752e-01
3.026596e+01
-3.950153e-01
3.044138e+01
-2.195946e-01
3.062079e+01
-3.391628e-01
3.086996e+01
-8.999113e-02
3.111116e+01
-2.517598e-01
3.143690e+01
7.398557e-02
3.174178e+01
-1.312374e-01
3.214801e+01
2.749913e-01
3.251804e+01
2.514954e-02
3.300992e+01
5.170303e-01
3.344510e+01
2.221605e-01
3.402939e+01
8.064431e-01
3.452586e+01
4.682339e-01
3.521145e+01
1.153832e+00
3.575680e+01
7.788454e-01
3.655587e+01
1.577913e+00
3.711962e+01
1.183272e+00
3.804957e+01
2.113223e+00
3.856451e+01
1.738416e+00
3.965168e+01
2.825588e+00
3.997804e+01
2.557413e+00
4.126392e+01
3.843292e+00
4.112405e+01
3.870109e+00
4.267625e+01
5.422309e+00
4.153902e+01
6.146856e+00
4.350420e+01
8.112042e+00
4.025783e+01
1.068554e+01
4.310076e+01
1.352848e+01
3.809074e+01
1.843214e+01
4.117451e+01
2.151591e+01
3.868505e+01
2.280622e+01
4.077457e+01
2.489574e+01
4.035966e+01
2.523236e+01
4.241773e+01
2.729043e+01
4.279291e+01
2.700787e+01
4.477660e+01
2.899156e+01
4.556177e+01
2.836749e+01
4.741845e+01
3.022417e+01
4.837108e+01
2.945742e+01
5.005855e+01
3.114489e+01
5.104414e+01
3.035357e+01
5.253877e+01
3.184820e+01
5.347703e+01
3.110052e+01
5.476802e+01
3.239151e+01
5.561209e+01
3.172491e+01
5.669672e+01
3.280954e+01
5.741978e+01
3.224341e+01
5.829967e+01
3.312330e+01
5.888701e+01
3.266682e+01
5.956570e+01
3.334551e+01
6.000976e+01
3.300242e+01
6.049113e+01
3.348380e+01
6.078833e+01
3.325514e+01
6.107571e+01
3.354251e+01
6.122455e+01
3.342829e+01
6.132009e+01
3.352383e+01
</DataArray>
<DataArray type="Float32" Name="V2" format="ascii">
5.638815e-01
6.500000e-01
5.665079e-01
6.524566e-01
5.665079e-01
6.524566e-01
5.743355e-01
6.598100e-01
5.743355e-01
6.598100e-01
5.873238e-01
6.720116e-01
5.873238e-01
6.720116e-01
6.053860e-01
6.889804e-01
6.053860e-01
6.889804e-01
6.284011e-01
7.106035e-01
6.284011e-01
7.106035e-01
6.562142e-01
7.367370e-01
6.562142e-01
7.367370e-01
6.886369e-01
7.672067e-01
6.886369e-01
7.672067e-01
7.254477e-01
8.018102e-01
7.254477e-01
8.018102e-01
7.663916e-01
8.403198e-01
7.663916e-01
8.403198e-01
8.111791e-01
8.824884e-01
8.111791e-01
8.824884e-01
8.594822e-01
9.280597e-01
8.594822e-01
9.280597e-01
9.109241e-01
9.767869e-01
9.109241e-01
9.767869e-01
9.650539e-01
1.028462e+00
9.650539e-01
1.028462e+00
1.021282e+00
1.082954e+00
1.021282e+00
1.082954e+00
1.078696e+00
1.140192e+00
1.078696e+00
1.140192e+00
1.136149e+00
1.199464e+00
1.136149e+00
1.199464e+00
1.190714e+00
1.254637e+00
1.190714e+00
1.254637e+00
1.238268e+00
1.303366e+00
1.238268e+00
1.303366e+00
1.280130e+00
1.346922e+00
1.280130e+00
1.346922e+00
1.316716e+00
1.385088e+00
1.316716e+00
1.385088e+00
1.348548e+00
1.418184e+00
1.348548e+00
1.418184e+00
1.376037e+00
1.446602e+00
1.376037e+00
1.446602e+00
1.399539e+00
1.470751e+00
1.399539e+00
1.470751e+00
1.419354e+00
1.490996e+00
1.419354e+00
1.490996e+00
1.435730e+00
1.507648e+00
1.435730e+00
1.507648e+00
1.448870e+00
1.520956e+00
1.448870e+00
1.520956e+00
1.458933e+00
1.531118e+00
1.458933e+00
1.531118e+00
1.466039e+00
1.538276e+00
1.466039e+00
1.538276e+00
1.470269e+00
1.542533e+00
1.470269e+00
1.542533e+00
1.471674e+00
1.543945e+00
</DataArray>
<DataArray type="Float32" Name="V3" format="ascii">
0.000000e+00
0.000000e+00
3.444000e-02
2.985334e-02
3.444000e-02
2.985334e-02
6.842077e-02
5.927083e-02
6.842077e-02
5.927083e-02
1.014825e-01
8.781958e-02
1.014825e-01
8.781958e-02
1.331717e-01
1.150704e-01
1.331717e-01
1.150704e-01
1.630415e-01
1.406012e-01
1.630415e-01
1.406012e-01
1.906536e-01
1.639991e-01
1.906536e-01
1.639991e-01
2.155806e-01
1.848635e-01
2.155806e-01
1.848635e-01
2.374069e-01
2.028094e-01
2.374069e-01
2.028094e-01
2.557295e-01
2.174724e-01
2.557295e-01
2.174724e-01
2.701571e-01
2.285147e-01
2.701571e-01
2.285147e-01
2.803073e-01
2.356357e-01
2.803073e-01
2.356357e-01
2.857991e-01
2.385858e-01
2.857991e-01
2.385858e-01
2.862404e-01
2.371848e-01
2.862404e-01
2.371848e-01
2.812120e-01
2.313321e-01
2.812120e-01
2.313321e-01
2.702944e-01
2.209527e-01
2.702944e-01
2.209527e-01
2.533232e-01
2.053414e-01
2.533232e-01
2.053414e-01
2.337613e-01
1.874112e-01
2.337613e-01
1.874112e-01
2.150573e-01
1.725680e-01
2.150573e-01
1.725680e-01
1.967733e-01
1.590151e-01
1.967733e-01
1.590151e-01
1.789486e-01
1.460738e-01
1.789486e-01
1.460738e-01
1.613694e-01
1.331967e-01
1.613694e-01
1.331967e-01
1.438792e-01
1.200626e-01
1.438792e-01
1.200626e-01
1.263578e-01
1.065013e-01
1.263578e-01
1.065013e-01
1.087274e-01
9.244629e-02
1.087274e-01
9.244629e-02
9.094625e-02
7.789824e-02
9.094625e-02
7.789824e-02
7.300193e-02
6.290045e-02
7.300193e-02
6.290045e-02
5.490420e-02
4.752239e-02
5.490420e-02
4.752239e-02
3.667891e-02
3.184925e-02
3.667891e-02
3.184925e-02
1.836294e-02
1.597535e-02
1.836294e-02
1.597535e-02
0.000000e+00
0.000000e+00
</DataArray>
<DataArray type="Float32" Name="V4" format="ascii">
8.500000e-01
1.000000e+00
8.500000e-01
1.000000e+00
8.500000e-01
1.000000e+00
8.500000e-01
1.000000e+00
8.500000e-01
1.000000e+00
8.500000e-01
1.000000e+00
8.500000e-01
1.000000e+00
8.500000e-01
1.000000e+00
8.500000e-01
1.000000e+00
8.500000e-01
1.000000e+00
8.500000e-01
1.000000e+00
8.500000e-01
1.000000e+00
8.500000e-01
1.000000e+00
8.500000e-01
1.000000e+00
8.500000e-01
1.000000e+00
8.500000e-01
1.000000e+00
8.500000e-01
1.000000e+00
8.500000e-01
1.000000e+00
8.500000e-01
1.000000e+00
8.500000e-01
1.000000e+00
8.500000e-01
1.000000e+00
8.500000e-01
1.000000e+00
8.500000e-01
1.000000e+00
8.500000e-01
1.000000e+00
8.500000e-01
1.000000e+00
8.500000e-01
1.000000e+00
8.500000e-01
1.000000e+00
8.500000e-01
1.000000e+00
8.500000e-01
1.000000e+00
8.500000e-01
1.000000e+00
8.500000e-01
1.000000e+00
8.500000e-01
1.000000e+00
8.500000e-01
1.000000e+00
8.500000e-01
1.000000e+00
8.500000e-01
1.000000e+00
8.500000e-01
1.000000e+00
8.500000e-01
1.000000e+00
8.500000e-01
1.000000e+00
8.500000e-01
1.000000e+00
8.500000e-01
1.000000e+00
8.500000e-01
1.000000e+00
8.500000e-01
1.000000e+00
8.500000e-01
1.000000e+00
8.500000e-01
1.000000e+00
8.500000e-01
1.000000e+00
8.500000e-01
1.000000e+00
8.500000e-01
1.000000e+00
8.500000e-01
1.000000e+00
8.500000e-01
1.000000e+00
8.500000e-01
1.000000e+00
8.500000e-01
1.000000e+00
8.500000e-01
1.000000e+00
8.500000e-01
1.000000e+00
8.500000e-01
1.000000e+00
8.500000e-01
1.000000e+00
8.500000e-01
1.000000e+00
8.500000e-01
1.000000e+00
8.500000e-01
1.000000e+00
8.500000e-01
1.000000e+00
8.500000e-01
1.000000e+00
</DataArray>
<DataArray type="Float32" Name="V5" format="ascii">
0.000000e+00
0.000000e+00
5.235988e-02
5.235988e-02
5.235988e-02
5.235988e-02
1.047198e-01
1.047198e-01
1.047198e-01
1.047198e-01
1.570796e-01
1.570796e-01
1.570796e-01
1.570796e-01
2.094395e-01
2.094395e-01
2.094395e-01
2.094395e-01
2.617994e-01
2.617994e-01
2.617994e-01
2.617994e-01
3.141593e-01
3.141593e-01
3.141593e-01
3.141593e-01
3.665191e-01
3.665191e-01
3.665191e-01
3.665191e-01
4.188790e-01
4.188790e-01
4.188790e-01
4.188790e-01
4.712389e-01
4.712389e-01
4.712389e-01
4.712389e-01
5.235988e-01
5.235988e-01
5.235988e-01
5.235988e-01
5.759587e-01
5.759587e-01
5.759587e-01
5.759587e-01
6.283185e-01
6.283185e-01
6.283185e-01
6.283185e-01
6.806784e-01
6.806784e-01
6.806784e-01
6.806784e-01
7.330383e-01
7.330383e-01
7.330383e-01
7.330383e-01
7.853982e-01
7.853982e-01
7.853982e-01
7.853982e-01
8.377580e-01
8.377580e-01
8.377580e-01
8.377580e-01
8.901179e-01
8.901179e-01
8.901179e-01
8.901179e-01
9.424778e-01
9.424778e-01
9.424778e-01
9.424778e-01
9.948377e-01
9.948377e-01
9.948377e-01
9.948377e-01
1.047198e+00
1.047198e+00
1.047198e+00
1.047198e+00
1.099557e+00
1.099557e+00
1.099557e+00
1.099557e+00
1.151917e+00
1.151917e+00
1.151917e+00
1.151917e+00
1.204277e+00
1.204277e+00
1.204277e+00
1.204277e+00
1.256637e+00
1.256637e+00
1.256637e+00
1.256637e+00
1.308997e+00
1.308997e+00
1.308997e+00
1.308997e+00
1.361357e+00
1.361357e+00
1.361357e+00
1.361357e+00
1.413717e+00
1.413717e+00
1.413717e+00
1.413717e+00
1.466077e+00
1.466077e+00
1.466077e+00
1.466077e+00
1.518436e+00
1.518436e+00
1.518436e+00
1.518436e+00
1.570796e+00
1.570796e+00
</DataArray>
</PointData>
</Piece></UnstructuredGrid>
</VTKFile>
