<?xml version="1.0"?>
<VTKFile type="UnstructuredGrid" version="0.1" byte_order="LittleEndian" compressor="vtkZLibDataCompressor">
<UnstructuredGrid>
<Piece NumberOfPoints="120" NumberOfCells="30">
<Points>
<DataArray type="Float32" NumberOfComponents="3" format="ascii">
0.000000e+00 9.943978e-01 0.000000e+00
0.000000e+00 1.100000e+00 0.000000e+00
5.623815e-02 9.944184e-01 0.000000e+00
5.926246e-02 1.100000e+00 0.000000e+00
5.623815e-02 9.944184e-01 0.000000e+00
5.926246e-02 1.100000e+00 0.000000e+00
1.119070e-01 9.940744e-01 0.000000e+00
1.187548e-01 1.100000e+00 0.000000e+00
1.119070e-01 9.940744e-01 0.000000e+00
1.187548e-01 1.100000e+00 0.000000e+00
1.668193e-01 9.929432e-01 0.000000e+00
1.781152e-01 1.100000e+00 0.000000e+00
1.668193e-01 9.929432e-01 0.000000e+00
1.781152e-01 1.100000e+00 0.000000e+00
2.212247e-01 9.887723e-01 0.000000e+00
2.368922e-01 1.095770e+00 0.000000e+00
2.212247e-01 9.887723e-01 0.000000e+00
2.368922e-01 1.095770e+00 0.000000e+00
2.744912e-01 9.810155e-01 0.000000e+00
2.956680e-01 1.086705e+00 0.000000e+00
2.744912e-01 9.810155e-01 0.000000e+00
2.956680e-01 1.086705e+00 0.000000e+00
3.269521e-01 9.697346e-01 0.000000e+00
3.540991e-01 1.073753e+00 0.000000e+00
3.269521e-01 9.697346e-01 0.000000e+00
3.540991e-01 1.073753e+00 0.000000e+00
3.785849e-01 9.550537e-01 0.000000e+00
4.117478e-01 1.057069e+00 0.000000e+00
3.785849e-01 9.550537e-01 0.000000e+00
4.117478e-01 1.057069e+00 0.000000e+00
4.292680e-01 9.371461e-01 0.000000e+00
4.683235e-01 1.036847e+00 0.000000e+00
4.292680e-01 9.371461e-01 0.000000e+00
4.683235e-01 1.036847e+00 0.000000e+00
4.788552e-01 9.161602e-01 0.000000e+00
5.236060e-01 1.013258e+00 0.000000e+00
4.788552e-01 9.161602e-01 0.000000e+00
5.236060e-01 1.013258e+00 0.000000e+00
5.271956e-01 8.922366e-01 0.000000e+00
5.774150e-01 9.864656e-01 0.000000e+00
5.271956e-01 8.922366e-01 0.000000e+00
5.774150e-01 9.864656e-01 0.000000e+00
5.741414e-01 8.655092e-01 0.000000e+00
6.295916e-01 9.566203e-01 0.000000e+00
5.741414e-01 8.655092e-01 0.000000e+00
6.295916e-01 9.566203e-01 0.000000e+00
6.195505e-01 8.361078e-01 0.000000e+00
6.799907e-01 9.238658e-01 0.000000e+00
6.195505e-01 8.361078e-01 0.000000e+00
6.799907e-01 9.238658e-01 0.000000e+00
6.632879e-01 8.041600e-01 0.000000e+00
7.284760e-01 8.883416e-01 0.000000e+00
6.632879e-01 8.041600e-01 0.000000e+00
7.284760e-01 8.883416e-01 0.000000e+00
7.052253e-01 7.697923e-01 0.000000e+00
7.749185e-01 8.501853e-01 0.000000e+00
7.052253e-01 7.697923e-01 0.000000e+00
7.749185e-01 8.501853e-01 0.000000e+00
7.452416e-01 7.331315e-01 0.000000e+00
8.191955e-01 8.095336e-01 0.000000e+00
7.452416e-01 7.331315e-01 0.000000e+00
8.191955e-01 8.095336e-01 0.000000e+00
7.832227e-01 6.943053e-01 0.000000e+00
8.611905e-01 7.665246e-01 0.000000e+00
7.832227e-01 6.943053e-01 0.000000e+00
8.611905e-01 7.665246e-01 0.000000e+00
8.190613e-01 6.534430e-01 0.000000e+00
9.007929e-01 7.212981e-01 0.000000e+00
8.190613e-01 6.534430e-01 0.000000e+00
9.007929e-01 7.212981e-01 0.000000e+00
8.526570e-01 6.106760e-01 0.000000e+00
9.378982e-01 6.739960e-01 0.000000e+00
8.526570e-01 6.106760e-01 0.000000e+00
9.378982e-01 6.739960e-01 0.000000e+00
8.839162e-01 5.661382e-01 0.000000e+00
9.724087e-01 6.247632e-01 0.000000e+00
8.839162e-01 5.661382e-01 0.000000e+00
9.724087e-01 6.247632e-01 0.000000e+00
9.127525e-01 5.199658e-01 0.000000e+00
1.004233e+00 5.737475e-01 0.000000e+00
9.127525e-01 5.199658e-01 0.000000e+00
1.004233e+00 5.737475e-01 0.000000e+00
9.390862e-01 4.722975e-01 0.000000e+00
1.033287e+00 5.210997e-01 0.000000e+00
9.390862e-01 4.722975e-01 0.000000e+00
1.033287e+00 5.210997e-01 0.000000e+00
9.628451e-01 4.232749e-01 0.000000e+00
1.059494e+00 4.669735e-01 0.000000e+00
9.628451e-01 4.232749e-01 0.000000e+00
1.059494e+00 4.669735e-01 0.000000e+00
9.839638e-01 3.730415e-01 0.000000e+00
1.082784e+00 4.115253e-01 0.000000e+00
9.839638e-01 3.730415e-01 0.000000e+00
1.082784e+00 4.115253e-01 0.000000e+00
1.002385e+00 3.217434e-01 0.000000e+00
1.103096e+00 3.549142e-01 0.000000e+00
1.002385e+00 3.217434e-01 0.000000e+00
1.103096e+00 3.549142e-01 0.000000e+00
1.018057e+00 2.695287e-01 0.000000e+00
1.120375e+00 2.973018e-01 0.000000e+00
1.018057e+00 2.695287e-01 0.000000e+00
1.120375e+00 2.973018e-01 0.000000e+00
1.030939e+00 2.165473e-01 0.000000e+00
1.134576e+00 2.388517e-01 0.000000e+00
1.030939e+00 2.165473e-01 0.000000e+00
1.134576e+00 2.388517e-01 0.000000e+00
1.040995e+00 1.629506e-01 0.000000e+00
1.145660e+00 1.797291e-01 0.000000e+00
1.040995e+00 1.629506e-01 0.000000e+00
1.145660e+00 1.797291e-01 0.000000e+00
1.048197e+00 1.088912e-01 0.000000e+00
1.153598e+00 1.201008e-01 0.000000e+00
1.048197e+00 1.088912e-01 0.000000e+00
1.153598e+00 1.201008e-01 0.000000e+00
1.052526e+00 5.452293e-02 0.000000e+00
1.158370e+00 6.013494e-02 0.000000e+00
1.052526e+00 5.452293e-02 0.000000e+00
1.158370e+00 6.013494e-02 0.000000e+00
1.053971e+00 5.160860e-12 0.000000e+00
1.159962e+00 5.679860e-12 0.000000e+00
</DataArray>
</Points>
<Cells>
<DataArray type="Int32" Name="connectivity" format="ascii">
0 1 3 2
4 5 7 6
8 9 11 10
12 13 15 14
16 17 19 18
20 21 23 22
24 25 27 26
28 29 31 30
32 33 35 34
36 37 39 38
40 41 43 42
44 45 47 46
48 49 51 50
52 53 55 54
56 57 59 58
60 61 63 62
64 65 67 66
68 69 71 70
72 73 75 74
76 77 79 78
80 81 83 82
84 85 87 86
88 89 91 90
92 93 95 94
96 97 99 98
100 101 103 102
104 105 107 106
108 109 111 110
112 113 115 114
116 117 119 118
</DataArray>
<DataArray type="Int32" Name="offsets" format="ascii">
4
8
12
16
20
24
28
32
36
40
44
48
52
56
60
64
68
72
76
80
84
88
92
96
100
104
108
112
116
120
</DataArray>
<DataArray type="UInt8" Name="types" format="ascii">
9
9
9
9
9
9
9
9
9
9
9
9
9
9
9
9
9
9
9
9
9
9
9
9
9
9
9
9
9
9
</DataArray>
</Cells>
<PointData>
<DataArray type="Float32" Name="V1" format="ascii">
1.292900e+01
2.000681e+00
1.303670e+01
2.108380e+00
1.239616e+01
2.539939e+00
1.269524e+01
2.839013e+00
1.122431e+01
3.991508e+00
1.190700e+01
4.674198e+00
1.025447e+01
6.193783e+00
1.067319e+01
6.612503e+00
9.965787e+00
7.051098e+00
1.008380e+01
7.169108e+00
9.798355e+00
7.395434e+00
9.895377e+00
7.492455e+00
9.761514e+00
7.600723e+00
9.844277e+00
7.683486e+00
9.790021e+00
7.727664e+00
9.860597e+00
7.798240e+00
9.845834e+00
7.810258e+00
9.905952e+00
7.870376e+00
9.910803e+00
7.866485e+00
9.962114e+00
7.917796e+00
9.976039e+00
7.906585e+00
1.001995e+01
7.950501e+00
1.003745e+01
7.936444e+00
1.007515e+01
7.974148e+00
1.009337e+01
7.959540e+00
1.012584e+01
7.992007e+00
1.014337e+01
7.977978e+00
1.017140e+01
8.006010e+00
1.018761e+01
7.993068e+00
1.021186e+01
8.017321e+00
1.022650e+01
8.005652e+00
1.024751e+01
8.026666e+00
1.026054e+01
8.016290e+00
1.027877e+01
8.034511e+00
1.029027e+01
8.025366e+00
1.030606e+01
8.041163e+00
1.031614e+01
8.033157e+00
1.032982e+01
8.046837e+00
1.033861e+01
8.039866e+00
1.035043e+01
8.051684e+00
1.035804e+01
8.045649e+00
1.036821e+01
8.055818e+00
1.037476e+01
8.050626e+00
1.038345e+01
8.059323e+00
1.038904e+01
8.054895e+00
1.039642e+01
8.062267e+00
1.040113e+01
8.058532e+00
1.040730e+01
8.064701e+00
1.041122e+01
8.061601e+00
1.041628e+01
8.066666e+00
1.041946e+01
8.064153e+00
1.042350e+01
8.068195e+00
1.042598e+01
8.066229e+00
1.042907e+01
8.069310e+00
1.043090e+01
8.067861e+00
1.043306e+01
8.070029e+00
1.043427e+01
8.069076e+00
1.043556e+01
8.070363e+00
1.043616e+01
8.069890e+00
1.043658e+01
8.070317e+00
</DataArray>
<DataArray type="Float32" Name="V2" format="ascii">
9.943978e-01
1.100000e+00
9.959988e-01
1.101594e+00
9.959988e-01
1.101594e+00
1.000326e+00
1.106387e+00
1.000326e+00
1.106387e+00
1.006815e+00
1.114321e+00
1.006815e+00
1.114321e+00
1.013160e+00
1.121078e+00
1.013160e+00
1.121078e+00
1.018632e+00
1.126201e+00
1.018632e+00
1.126201e+00
1.023306e+00
1.130623e+00
1.023306e+00
1.130623e+00
1.027292e+00
1.134417e+00
1.027292e+00
1.134417e+00
1.030725e+00
1.137691e+00
1.030725e+00
1.137691e+00
1.033700e+00
1.140532e+00
1.033700e+00
1.140532e+00
1.036297e+00
1.143012e+00
1.036297e+00
1.143012e+00
1.038577e+00
1.145189e+00
1.038577e+00
1.145189e+00
1.040588e+00
1.147112e+00
1.040588e+00
1.147112e+00
1.042370e+00
1.148816e+00
1.042370e+00
1.148816e+00
1.043955e+00
1.150332e+00
1.043955e+00
1.150332e+00
1.045368e+00
1.151685e+00
1.045368e+00
1.151685e+00
1.046629e+00
1.152894e+00
1.046629e+00
1.152894e+00
1.047755e+00
1.153975e+00
1.047755e+00
1.153975e+00
1.048760e+00
1.154940e+00
1.048760e+00
1.154940e+00
1.049656e+00
1.155801e+00
1.049656e+00
1.155801e+00
1.050450e+00
1.156565e+00
1.050450e+00
1.156565e+00
1.051151e+00
1.157240e+00
1.051151e+00
1.157240e+00
1.051764e+00
1.157831e+00
1.051764e+00
1.157831e+00
1.052295e+00
1.158344e+00
1.052295e+00
1.158344e+00
1.052749e+00
1.158781e+00
1.052749e+00
1.158781e+00
1.053127e+00
1.159147e+00
1.053127e+00
1.159147e+00
1.053433e+00
1.159442e+00
1.053433e+00
1.159442e+00
1.053670e+00
1.159671e+00
1.053670e+00
1.159671e+00
1.053837e+00
1.159833e+00
1.053837e+00
1.159833e+00
1.053938e+00
1.159930e+00
1.053938e+00
1.159930e+00
1.053971e+00
1.159962e+00
</DataArray>
<DataArray type="Float32" Name="V3" format="ascii">
0.000000e+00
0.000000e+00
4.117237e-03
1.611689e-03
4.117237e-03
1.611689e-03
7.384840e-03
3.122983e-03
7.384840e-03
3.122983e-03
9.434967e-03
3.844371e-03
9.434967e-03
3.844371e-03
1.081309e-02
3.892142e-03
1.081309e-02
3.892142e-03
1.123263e-02
4.333398e-03
1.123263e-02
4.333398e-03
1.128542e-02
4.960295e-03
1.128542e-02
4.960295e-03
1.117879e-02
5.579894e-03
1.117879e-02
5.579894e-03
1.098421e-02
6.111357e-03
1.098421e-02
6.111357e-03
1.073505e-02
6.526864e-03
1.073505e-02
6.526864e-03
1.044645e-02
6.823222e-03
1.044645e-02
6.823222e-03
1.012539e-02
7.007249e-03
1.012539e-02
7.007249e-03
9.775096e-03
7.089358e-03
9.775096e-03
7.089358e-03
9.397245e-03
7.080648e-03
9.397245e-03
7.080648e-03
8.992936e-03
6.991679e-03
8.992936e-03
6.991679e-03
8.563147e-03
6.832012e-03
8.563147e-03
6.832012e-03
8.108916e-03
6.610120e-03
8.108916e-03
6.610120e-03
7.631406e-03
6.333453e-03
7.631406e-03
6.333453e-03
7.131910e-03
6.008562e-03
7.131910e-03
6.008562e-03
6.611837e-03
5.641232e-03
6.611837e-03
5.641232e-03
6.072690e-03
5.236613e-03
6.072690e-03
5.236613e-03
5.516049e-03
4.799333e-03
5.516049e-03
4.799333e-03
4.943551e-03
4.333594e-03
4.943551e-03
4.333594e-03
4.356878e-03
3.843251e-03
4.356878e-03
3.843251e-03
3.757747e-03
3.331885e-03
3.757747e-03
3.331885e-03
3.147900e-03
2.802853e-03
3.147900e-03
2.802853e-03
2.529099e-03
2.259337e-03
2.529099e-03
2.259337e-03
1.903118e-03
1.704384e-03
1.903118e-03
1.704384e-03
1.271745e-03
1.140938e-03
1.271745e-03
1.140938e-03
6.367729e-04
5.718690e-04
6.367729e-04
5.718690e-04
0.000000e+00
0.000000e+00
</DataArray>
<DataArray type="Float32" Name="V4" format="ascii">
8.500000e-01
1.000000e+00
8.500000e-01
1.000000e+00
8.500000e-01
1.000000e+00
8.500000e-01
1.000000e+00
8.500000e-01
1.000000e+00
8.500000e-01
1.000000e+00
8.500000e-01
1.000000e+00
8.500000e-01
1.000000e+00
8.500000e-01
1.000000e+00
8.500000e-01
1.000000e+00
8.500000e-01
1.000000e+00
8.500000e-01
1.000000e+00
8.500000e-01
1.000000e+00
8.500000e-01
1.000000e+00
8.500000e-01
1.000000e+00
8.500000e-01
1.000000e+00
8.500000e-01
1.000000e+00
8.500000e-01
1.000000e+00
8.500000e-01
1.000000e+00
8.500000e-01
1.000000e+00
8.500000e-01
1.000000e+00
8.500000e-01
1.000000e+00
8.500000e-01
1.000000e+00
8.500000e-01
1.000000e+00
8.500000e-01
1.000000e+00
8.500000e-01
1.000000e+00
8.500000e-01
1.000000e+00
8.500000e-01
1.000000e+00
8.500000e-01
1.000000e+00
8.500000e-01
1.000000e+00
8.500000e-01
1.000000e+00
8.500000e-01
1.000000e+00
8.500000e-01
1.000000e+00
8.500000e-01
1.000000e+00
8.500000e-01
1.000000e+00
8.500000e-01
1.000000e+00
8.500000e-01
1.000000e+00
8.500000e-01
1.000000e+00
8.500000e-01
1.000000e+00
8.500000e-01
1.000000e+00
8.500000e-01
1.000000e+00
8.500000e-01
1.000000e+00
8.500000e-01
1.000000e+00
8.500000e-01
1.000000e+00
8.500000e-01
1.000000e+00
8.500000e-01
1.000000e+00
8.500000e-01
1.000000e+00
8.500000e-01
1.000000e+00
8.500000e-01
1.000000e+00
8.500000e-01
1.000000e+00
8.500000e-01
1.000000e+00
8.500000e-01
1.000000e+00
8.500000e-01
1.000000e+00
8.500000e-01
1.000000e+00
8.500000e-01
1.000000e+00
8.500000e-01
1.000000e+00
8.500000e-01
1.000000e+00
8.500000e-01
1.000000e+00
8.500000e-01
1.000000e+00
8.500000e-01
1.000000e+00
</DataArray>
<DataArray type="Float32" Name="V5" format="ascii">
0.000000e+00
0.000000e+00
5.235988e-02
5.235988e-02
5.235988e-02
5.235988e-02
1.047198e-01
1.047198e-01
1.047198e-01
1.047198e-01
1.570796e-01
1.570796e-01
1.570796e-01
1.570796e-01
2.094395e-01
2.094395e-01
2.094395e-01
2.094395e-01
2.617994e-01
2.617994e-01
2.617994e-01
2.617994e-01
3.141593e-01
3.141593e-01
3.141593e-01
3.141593e-01
3.665191e-01
3.665191e-01
3.665191e-01
3.665191e-01
4.188790e-01
4.188790e-01
4.188790e-01
4.188790e-01
4.712389e-01
4.712389e-01
4.712389e-01
4.712389e-01
5.235988e-01
5.235988e-01
5.235988e-01
5.235988e-01
5.759587e-01
5.759587e-01
5.759587e-01
5.759587e-01
6.283185e-01
6.283185e-01
6.283185e-01
6.283185e-01
6.806784e-01
6.806784e-01
6.806784e-01
6.806784e-01
7.330383e-01
7.330383e-01
7.330383e-01
7.330383e-01
7.853982e-01
7.853982e-01
7.853982e-01
7.853982e-01
8.377580e-01
8.377580e-01
8.377580e-01
8.377580e-01
8.901179e-01
8.901179e-01
8.901179e-01
8.901179e-01
9.424778e-01
9.424778e-01
9.424778e-01
9.424778e-01
9.948377e-01
9.948377e-01
9.948377e-01
9.948377e-01
1.047198e+00
1.047198e+00
1.047198e+00
1.047198e+00
1.099557e+00
1.099557e+00
1.099557e+00
1.099557e+00
1.151917e+00
1.151917e+00
1.151917e+00
1.151917e+00
1.204277e+00
1.204277e+00
1.204277e+00
1.204277e+00
1.256637e+00
1.256637e+00
1.256637e+00
1.256637e+00
1.308997e+00
1.308997e+00
1.308997e+00
1.308997e+00
1.361357e+00
1.361357e+00
1.361357e+00
1.361357e+00
1.413717e+00
1.413717e+00
1.413717e+00
1.413717e+00
1.466077e+00
1.466077e+00
1.466077e+00
1.466077e+00
1.518436e+00
1.518436e+00
1.518436e+00
1.518436e+00
1.570796e+00
1.570796e+00
</DataArray>
</PointData>
</Piece></UnstructuredGrid>
</VTKFile>
