<?xml version="1.0"?>
<VTKFile type="UnstructuredGrid" version="0.1" byte_order="LittleEndian" compressor="vtkZLibDataCompressor">
<UnstructuredGrid>
<Piece NumberOfPoints="120" NumberOfCells="30">
<Points>
<DataArray type="Float32" NumberOfComponents="3" format="ascii">
0.000000e+00 5.724645e-01 0.000000e+00
0.000000e+00 6.600000e-01 0.000000e+00
6.352311e-02 5.725128e-01 0.000000e+00
6.343841e-02 6.600000e-01 0.000000e+00
6.352311e-02 5.725128e-01 0.000000e+00
6.343841e-02 6.600000e-01 0.000000e+00
1.270439e-01 5.726238e-01 0.000000e+00
1.268735e-01 6.600000e-01 0.000000e+00
1.270439e-01 5.726238e-01 0.000000e+00
1.268735e-01 6.600000e-01 0.000000e+00
1.905570e-01 5.728087e-01 0.000000e+00
1.903029e-01 6.600000e-01 0.000000e+00
1.905570e-01 5.728087e-01 0.000000e+00
1.903029e-01 6.600000e-01 0.000000e+00
2.540585e-01 5.730667e-01 0.000000e+00
2.537234e-01 6.600000e-01 0.000000e+00
2.540585e-01 5.730667e-01 0.000000e+00
2.537234e-01 6.600000e-01 0.000000e+00
3.175436e-01 5.733970e-01 0.000000e+00
3.171321e-01 6.600000e-01 0.000000e+00
3.175436e-01 5.733970e-01 0.000000e+00
3.171321e-01 6.600000e-01 0.000000e+00
3.810062e-01 5.737984e-01 0.000000e+00
3.805269e-01 6.600000e-01 0.000000e+00
3.810062e-01 5.737984e-01 0.000000e+00
3.805269e-01 6.600000e-01 0.000000e+00
4.444385e-01 5.742701e-01 0.000000e+00
4.439077e-01 6.600000e-01 0.000000e+00
4.444385e-01 5.742701e-01 0.000000e+00
4.439077e-01 6.600000e-01 0.000000e+00
5.078297e-01 5.748115e-01 0.000000e+00
5.072777e-01 6.600000e-01 0.000000e+00
5.078297e-01 5.748115e-01 0.000000e+00
5.072777e-01 6.600000e-01 0.000000e+00
5.711632e-01 5.754230e-01 0.000000e+00
5.706484e-01 6.600000e-01 0.000000e+00
5.711632e-01 5.754230e-01 0.000000e+00
5.706484e-01 6.600000e-01 0.000000e+00
6.344126e-01 5.761064e-01 0.000000e+00
6.340469e-01 6.600000e-01 0.000000e+00
6.344126e-01 5.761064e-01 0.000000e+00
6.340469e-01 6.600000e-01 0.000000e+00
6.975329e-01 5.768656e-01 0.000000e+00
6.975307e-01 6.600000e-01 0.000000e+00
6.975329e-01 5.768656e-01 0.000000e+00
6.975307e-01 6.600000e-01 0.000000e+00
7.604421e-01 5.777061e-01 0.000000e+00
7.612111e-01 6.600000e-01 0.000000e+00
7.604421e-01 5.777061e-01 0.000000e+00
7.612111e-01 6.600000e-01 0.000000e+00
8.229862e-01 5.786268e-01 0.000000e+00
8.252874e-01 6.600000e-01 0.000000e+00
8.229862e-01 5.786268e-01 0.000000e+00
8.252874e-01 6.600000e-01 0.000000e+00
8.848648e-01 5.795831e-01 0.000000e+00
8.900679e-01 6.600000e-01 0.000000e+00
8.848648e-01 5.795831e-01 0.000000e+00
8.900679e-01 6.600000e-01 0.000000e+00
9.454885e-01 5.802845e-01 0.000000e+00
9.558410e-01 6.600000e-01 0.000000e+00
9.454885e-01 5.802845e-01 0.000000e+00
9.558410e-01 6.600000e-01 0.000000e+00
1.004643e+00 5.802603e-01 0.000000e+00
1.021190e+00 6.597921e-01 0.000000e+00
1.004643e+00 5.802603e-01 0.000000e+00
1.021190e+00 6.597921e-01 0.000000e+00
1.062160e+00 5.729512e-01 0.000000e+00
1.084654e+00 6.498125e-01 0.000000e+00
1.062160e+00 5.729512e-01 0.000000e+00
1.084654e+00 6.498125e-01 0.000000e+00
1.116720e+00 5.573278e-01 0.000000e+00
1.146769e+00 6.303112e-01 0.000000e+00
1.116720e+00 5.573278e-01 0.000000e+00
1.146769e+00 6.303112e-01 0.000000e+00
1.168132e+00 5.340634e-01 0.000000e+00
1.205933e+00 6.022382e-01 0.000000e+00
1.168132e+00 5.340634e-01 0.000000e+00
1.205933e+00 6.022382e-01 0.000000e+00
1.215992e+00 5.040988e-01 0.000000e+00
1.260976e+00 5.667290e-01 0.000000e+00
1.215992e+00 5.040988e-01 0.000000e+00
1.260976e+00 5.667290e-01 0.000000e+00
1.259939e+00 4.683183e-01 0.000000e+00
1.311222e+00 5.249221e-01 0.000000e+00
1.259939e+00 4.683183e-01 0.000000e+00
1.311222e+00 5.249221e-01 0.000000e+00
1.299693e+00 4.275504e-01 0.000000e+00
1.356324e+00 4.778624e-01 0.000000e+00
1.299693e+00 4.275504e-01 0.000000e+00
1.356324e+00 4.778624e-01 0.000000e+00
1.335049e+00 3.825531e-01 0.000000e+00
1.396120e+00 4.264616e-01 0.000000e+00
1.335049e+00 3.825531e-01 0.000000e+00
1.396120e+00 4.264616e-01 0.000000e+00
1.365866e+00 3.340146e-01 0.000000e+00
1.430556e+00 3.715038e-01 0.000000e+00
1.365866e+00 3.340146e-01 0.000000e+00
1.430556e+00 3.715038e-01 0.000000e+00
1.392045e+00 2.825585e-01 0.000000e+00
1.459630e+00 3.136648e-01 0.000000e+00
1.392045e+00 2.825585e-01 0.000000e+00
1.459630e+00 3.136648e-01 0.000000e+00
1.413523e+00 2.287526e-01 0.000000e+00
1.483363e+00 2.535352e-01 0.000000e+00
1.413523e+00 2.287526e-01 0.000000e+00
1.483363e+00 2.535352e-01 0.000000e+00
1.430260e+00 1.731190e-01 0.000000e+00
1.501783e+00 1.916405e-01 0.000000e+00
1.430260e+00 1.731190e-01 0.000000e+00
1.501783e+00 1.916405e-01 0.000000e+00
1.442230e+00 1.161446e-01 0.000000e+00
1.514918e+00 1.284593e-01 0.000000e+00
1.442230e+00 1.161446e-01 0.000000e+00
1.514918e+00 1.284593e-01 0.000000e+00
1.449417e+00 5.829026e-02 0.000000e+00
1.522790e+00 6.443738e-02 0.000000e+00
1.449417e+00 5.829026e-02 0.000000e+00
1.522790e+00 6.443738e-02 0.000000e+00
1.451813e+00 7.108930e-12 0.000000e+00
1.525413e+00 7.469320e-12 0.000000e+00
</DataArray>
</Points>
<Cells>
<DataArray type="Int32" Name="connectivity" format="ascii">
0 1 3 2
4 5 7 6
8 9 11 10
12 13 15 14
16 17 19 18
20 21 23 22
24 25 27 26
28 29 31 30
32 33 35 34
36 37 39 38
40 41 43 42
44 45 47 46
48 49 51 50
52 53 55 54
56 57 59 58
60 61 63 62
64 65 67 66
68 69 71 70
72 73 75 74
76 77 79 78
80 81 83 82
84 85 87 86
88 89 91 90
92 93 95 94
96 97 99 98
100 101 103 102
104 105 107 106
108 109 111 110
112 113 115 114
116 117 119 118
</DataArray>
<DataArray type="Int32" Name="offsets" format="ascii">
4
8
12
16
20
24
28
32
36
40
44
48
52
56
60
64
68
72
76
80
84
88
92
96
100
104
108
112
116
120
</DataArray>
<DataArray type="UInt8" Name="types" format="ascii">
9
9
9
9
9
9
9
9
9
9
9
9
9
9
9
9
9
9
9
9
9
9
9
9
9
9
9
9
9
9
</DataArray>
</Cells>
<PointData>
<DataArray type="Float32" Name="V1" format="ascii">
2.811052e+01
-4.005509e-01
2.814650e+01
-3.645682e-01
2.820136e+01
-4.008431e-01
2.829965e+01
-3.025468e-01
2.841188e+01
-3.765303e-01
2.857841e+01
-2.099953e-01
2.874707e+01
-3.227562e-01
2.898360e+01
-8.622580e-02
2.921028e+01
-2.387434e-01
2.951947e+01
7.044623e-02
2.980580e+01
-1.229216e-01
3.019135e+01
2.626254e-01
3.053838e+01
2.752474e-02
3.100519e+01
4.943324e-01
3.141211e+01
2.175958e-01
3.196663e+01
7.721093e-01
3.242805e+01
4.563973e-01
3.307887e+01
1.107219e+00
3.357933e+01
7.610185e-01
3.433839e+01
1.520087e+00
3.484131e+01
1.164456e+00
3.572614e+01
2.049287e+00
3.615214e+01
1.731891e+00
3.718995e+01
2.769705e+00
3.737587e+01
2.594695e+00
3.861075e+01
3.829582e+00
3.823610e+01
4.022367e+00
3.974463e+01
5.530893e+00
3.819996e+01
6.569715e+00
4.018730e+01
8.557063e+00
3.616461e+01
1.195195e+01
3.926487e+01
1.505221e+01
3.506979e+01
1.878298e+01
3.733067e+01
2.104386e+01
3.575958e+01
2.198820e+01
3.767434e+01
2.390296e+01
3.746542e+01
2.407083e+01
3.932652e+01
2.593193e+01
3.977225e+01
2.558827e+01
4.155426e+01
2.737028e+01
4.230968e+01
2.676428e+01
4.396494e+01
2.841955e+01
4.484266e+01
2.771115e+01
4.633884e+01
2.920733e+01
4.722932e+01
2.849195e+01
4.854917e+01
2.981180e+01
4.938803e+01
2.914359e+01
5.052477e+01
3.028033e+01
5.127458e+01
2.968855e+01
5.222764e+01
3.064161e+01
5.286728e+01
3.014111e+01
5.363930e+01
3.091313e+01
5.415745e+01
3.051063e+01
5.475232e+01
3.110550e+01
5.514334e+01
3.080349e+01
5.556497e+01
3.122512e+01
5.582638e+01
3.102405e+01
5.607797e+01
3.127564e+01
5.620880e+01
3.117525e+01
5.629243e+01
3.125888e+01
</DataArray>
<DataArray type="Float32" Name="V2" format="ascii">
5.724645e-01
6.600000e-01
5.750527e-01
6.624156e-01
5.750527e-01
6.624156e-01
5.827666e-01
6.696463e-01
5.827666e-01
6.696463e-01
5.955662e-01
6.816442e-01
5.955662e-01
6.816442e-01
6.133656e-01
6.983295e-01
6.133656e-01
6.983295e-01
6.360453e-01
7.195909e-01
6.360453e-01
7.195909e-01
6.634521e-01
7.452866e-01
6.634521e-01
7.452866e-01
6.953998e-01
7.752454e-01
6.953998e-01
7.752454e-01
7.316694e-01
8.092684e-01
7.316694e-01
8.092684e-01
7.720083e-01
8.471332e-01
7.720083e-01
8.471332e-01
8.161291e-01
8.886002e-01
8.161291e-01
8.886002e-01
8.637038e-01
9.334250e-01
8.637038e-01
9.334250e-01
9.143507e-01
9.813799e-01
9.143507e-01
9.813799e-01
9.675995e-01
1.032287e+00
9.675995e-01
1.032287e+00
1.022804e+00
1.086047e+00
1.022804e+00
1.086047e+00
1.078884e+00
1.142572e+00
1.078884e+00
1.142572e+00
1.134865e+00
1.200379e+00
1.134865e+00
1.200379e+00
1.186023e+00
1.251875e+00
1.186023e+00
1.251875e+00
1.231035e+00
1.298243e+00
1.231035e+00
1.298243e+00
1.270550e+00
1.339383e+00
1.270550e+00
1.339383e+00
1.305129e+00
1.375402e+00
1.305129e+00
1.375402e+00
1.335226e+00
1.406617e+00
1.335226e+00
1.406617e+00
1.361229e+00
1.433427e+00
1.361229e+00
1.433427e+00
1.383471e+00
1.456220e+00
1.383471e+00
1.456220e+00
1.402232e+00
1.475341e+00
1.402232e+00
1.475341e+00
1.417744e+00
1.491077e+00
1.417744e+00
1.491077e+00
1.430195e+00
1.503661e+00
1.430195e+00
1.503661e+00
1.439733e+00
1.513273e+00
1.439733e+00
1.513273e+00
1.446470e+00
1.520047e+00
1.446470e+00
1.520047e+00
1.450481e+00
1.524076e+00
1.450481e+00
1.524076e+00
1.451813e+00
1.525413e+00
</DataArray>
<DataArray type="Float32" Name="V3" format="ascii">
0.000000e+00
0.000000e+00
3.347305e-02
2.880974e-02
3.347305e-02
2.880974e-02
6.649243e-02
5.718974e-02
6.649243e-02
5.718974e-02
9.860390e-02
8.471324e-02
9.860390e-02
8.471324e-02
1.293594e-01
1.109572e-01
1.293594e-01
1.109572e-01
1.583175e-01
1.355055e-01
1.583175e-01
1.355055e-01
1.850450e-01
1.579514e-01
1.850450e-01
1.579514e-01
2.091191e-01
1.779007e-01
2.091191e-01
1.779007e-01
2.301286e-01
1.949750e-01
2.301286e-01
1.949750e-01
2.476735e-01
2.088177e-01
2.476735e-01
2.088177e-01
2.613643e-01
2.191008e-01
2.613643e-01
2.191008e-01
2.708167e-01
2.255367e-01
2.708167e-01
2.255367e-01
2.756435e-01
2.278945e-01
2.756435e-01
2.278945e-01
2.754387e-01
2.260173e-01
2.754387e-01
2.260173e-01
2.697659e-01
2.198232e-01
2.697659e-01
2.198232e-01
2.582383e-01
2.091911e-01
2.582383e-01
2.091911e-01
2.410198e-01
1.929882e-01
2.410198e-01
1.929882e-01
2.231721e-01
1.775956e-01
2.231721e-01
1.775956e-01
2.055040e-01
1.641212e-01
2.055040e-01
1.641212e-01
1.883071e-01
1.517187e-01
1.883071e-01
1.517187e-01
1.714336e-01
1.396864e-01
1.714336e-01
1.396864e-01
1.547255e-01
1.275735e-01
1.547255e-01
1.275735e-01
1.380459e-01
1.151175e-01
1.380459e-01
1.151175e-01
1.212948e-01
1.021884e-01
1.212948e-01
1.021884e-01
1.044089e-01
8.874505e-02
1.044089e-01
8.874505e-02
8.735720e-02
7.480306e-02
8.735720e-02
7.480306e-02
7.013429e-02
6.041360e-02
7.013429e-02
6.041360e-02
5.275436e-02
4.564950e-02
5.275436e-02
4.564950e-02
3.524569e-02
3.059648e-02
3.524569e-02
3.059648e-02
1.764625e-02
1.534763e-02
1.764625e-02
1.534763e-02
0.000000e+00
0.000000e+00
</DataArray>
<DataArray type="Float32" Name="V4" format="ascii">
8.500000e-01
1.000000e+00
8.500000e-01
1.000000e+00
8.500000e-01
1.000000e+00
8.500000e-01
1.000000e+00
8.500000e-01
1.000000e+00
8.500000e-01
1.000000e+00
8.500000e-01
1.000000e+00
8.500000e-01
1.000000e+00
8.500000e-01
1.000000e+00
8.500000e-01
1.000000e+00
8.500000e-01
1.000000e+00
8.500000e-01
1.000000e+00
8.500000e-01
1.000000e+00
8.500000e-01
1.000000e+00
8.500000e-01
1.000000e+00
8.500000e-01
1.000000e+00
8.500000e-01
1.000000e+00
8.500000e-01
1.000000e+00
8.500000e-01
1.000000e+00
8.500000e-01
1.000000e+00
8.500000e-01
1.000000e+00
8.500000e-01
1.000000e+00
8.500000e-01
1.000000e+00
8.500000e-01
1.000000e+00
8.500000e-01
1.000000e+00
8.500000e-01
1.000000e+00
8.500000e-01
1.000000e+00
8.500000e-01
1.000000e+00
8.500000e-01
1.000000e+00
8.500000e-01
1.000000e+00
8.500000e-01
1.000000e+00
8.500000e-01
1.000000e+00
8.500000e-01
1.000000e+00
8.500000e-01
1.000000e+00
8.500000e-01
1.000000e+00
8.500000e-01
1.000000e+00
8.500000e-01
1.000000e+00
8.500000e-01
1.000000e+00
8.500000e-01
1.000000e+00
8.500000e-01
1.000000e+00
8.500000e-01
1.000000e+00
8.500000e-01
1.000000e+00
8.500000e-01
1.000000e+00
8.500000e-01
1.000000e+00
8.500000e-01
1.000000e+00
8.500000e-01
1.000000e+00
8.500000e-01
1.000000e+00
8.500000e-01
1.000000e+00
8.500000e-01
1.000000e+00
8.500000e-01
1.000000e+00
8.500000e-01
1.000000e+00
8.500000e-01
1.000000e+00
8.500000e-01
1.000000e+00
8.500000e-01
1.000000e+00
8.500000e-01
1.000000e+00
8.500000e-01
1.000000e+00
8.500000e-01
1.000000e+00
8.500000e-01
1.000000e+00
8.500000e-01
1.000000e+00
8.500000e-01
1.000000e+00
</DataArray>
<DataArray type="Float32" Name="V5" format="ascii">
0.000000e+00
0.000000e+00
5.235988e-02
5.235988e-02
5.235988e-02
5.235988e-02
1.047198e-01
1.047198e-01
1.047198e-01
1.047198e-01
1.570796e-01
1.570796e-01
1.570796e-01
1.570796e-01
2.094395e-01
2.094395e-01
2.094395e-01
2.094395e-01
2.617994e-01
2.617994e-01
2.617994e-01
2.617994e-01
3.141593e-01
3.141593e-01
3.141593e-01
3.141593e-01
3.665191e-01
3.665191e-01
3.665191e-01
3.665191e-01
4.188790e-01
4.188790e-01
4.188790e-01
4.188790e-01
4.712389e-01
4.712389e-01
4.712389e-01
4.712389e-01
5.235988e-01
5.235988e-01
5.235988e-01
5.235988e-01
5.759587e-01
5.759587e-01
5.759587e-01
5.759587e-01
6.283185e-01
6.283185e-01
6.283185e-01
6.283185e-01
6.806784e-01
6.806784e-01
6.806784e-01
6.806784e-01
7.330383e-01
7.330383e-01
7.330383e-01
7.330383e-01
7.853982e-01
7.853982e-01
7.853982e-01
7.853982e-01
8.377580e-01
8.377580e-01
8.377580e-01
8.377580e-01
8.901179e-01
8.901179e-01
8.901179e-01
8.901179e-01
9.424778e-01
9.424778e-01
9.424778e-01
9.424778e-01
9.948377e-01
9.948377e-01
9.948377e-01
9.948377e-01
1.047198e+00
1.047198e+00
1.047198e+00
1.047198e+00
1.099557e+00
1.099557e+00
1.099557e+00
1.099557e+00
1.151917e+00
1.151917e+00
1.151917e+00
1.151917e+00
1.204277e+00
1.204277e+00
1.204277e+00
1.204277e+00
1.256637e+00
1.256637e+00
1.256637e+00
1.256637e+00
1.308997e+00
1.308997e+00
1.308997e+00
1.308997e+00
1.361357e+00
1.361357e+00
1.361357e+00
1.361357e+00
1.413717e+00
1.413717e+00
1.413717e+00
1.413717e+00
1.466077e+00
1.466077e+00
1.466077e+00
1.466077e+00
1.518436e+00
1.518436e+00
1.518436e+00
1.518436e+00
1.570796e+00
1.570796e+00
</DataArray>
</PointData>
</Piece></UnstructuredGrid>
</VTKFile>
