<?xml version="1.0"?>
<VTKFile type="UnstructuredGrid" version="0.1" byte_order="LittleEndian" compressor="vtkZLibDataCompressor">
<UnstructuredGrid>
<Piece NumberOfPoints="120" NumberOfCells="30">
<Points>
<DataArray type="Float32" NumberOfComponents="3" format="ascii">
0.000000e+00 6.429477e-01 0.000000e+00
0.000000e+00 7.400000e-01 0.000000e+00
6.034091e-02 6.430007e-01 0.000000e+00
6.024247e-02 7.400000e-01 0.000000e+00
6.034091e-02 6.430007e-01 0.000000e+00
6.024247e-02 7.400000e-01 0.000000e+00
1.206817e-01 6.431316e-01 0.000000e+00
1.204843e-01 7.400000e-01 0.000000e+00
1.206817e-01 6.431316e-01 0.000000e+00
1.204843e-01 7.400000e-01 0.000000e+00
1.810193e-01 6.433498e-01 0.000000e+00
1.807264e-01 7.400000e-01 0.000000e+00
1.810193e-01 6.433498e-01 0.000000e+00
1.807264e-01 7.400000e-01 0.000000e+00
2.413519e-01 6.436550e-01 0.000000e+00
2.409694e-01 7.400000e-01 0.000000e+00
2.413519e-01 6.436550e-01 0.000000e+00
2.409694e-01 7.400000e-01 0.000000e+00
3.016756e-01 6.440474e-01 0.000000e+00
3.012166e-01 7.400000e-01 0.000000e+00
3.016756e-01 6.440474e-01 0.000000e+00
3.012166e-01 7.400000e-01 0.000000e+00
3.619838e-01 6.445279e-01 0.000000e+00
3.614761e-01 7.400000e-01 0.000000e+00
3.619838e-01 6.445279e-01 0.000000e+00
3.614761e-01 7.400000e-01 0.000000e+00
4.222640e-01 6.450995e-01 0.000000e+00
4.217662e-01 7.400000e-01 0.000000e+00
4.222640e-01 6.450995e-01 0.000000e+00
4.217662e-01 7.400000e-01 0.000000e+00
4.824919e-01 6.457683e-01 0.000000e+00
4.821255e-01 7.400000e-01 0.000000e+00
4.824919e-01 6.457683e-01 0.000000e+00
4.821255e-01 7.400000e-01 0.000000e+00
5.426193e-01 6.465436e-01 0.000000e+00
5.426302e-01 7.400000e-01 0.000000e+00
5.426193e-01 6.465436e-01 0.000000e+00
5.426302e-01 7.400000e-01 0.000000e+00
6.025500e-01 6.474342e-01 0.000000e+00
6.034211e-01 7.400000e-01 0.000000e+00
6.025500e-01 6.474342e-01 0.000000e+00
6.034211e-01 7.400000e-01 0.000000e+00
6.620916e-01 6.484267e-01 0.000000e+00
6.647309e-01 7.400000e-01 0.000000e+00
6.620916e-01 6.484267e-01 0.000000e+00
6.647309e-01 7.400000e-01 0.000000e+00
7.208664e-01 6.493981e-01 0.000000e+00
7.268640e-01 7.400000e-01 0.000000e+00
7.208664e-01 6.493981e-01 0.000000e+00
7.268640e-01 7.400000e-01 0.000000e+00
7.782446e-01 6.498645e-01 0.000000e+00
7.898872e-01 7.400000e-01 0.000000e+00
7.782446e-01 6.498645e-01 0.000000e+00
7.898872e-01 7.400000e-01 0.000000e+00
8.344383e-01 6.485270e-01 0.000000e+00
8.520746e-01 7.383970e-01 0.000000e+00
8.344383e-01 6.485270e-01 0.000000e+00
8.520746e-01 7.383970e-01 0.000000e+00
8.887681e-01 6.402629e-01 0.000000e+00
9.132163e-01 7.273522e-01 0.000000e+00
8.887681e-01 6.402629e-01 0.000000e+00
9.132163e-01 7.273522e-01 0.000000e+00
9.407357e-01 6.253946e-01 0.000000e+00
9.732407e-01 7.085419e-01 0.000000e+00
9.407357e-01 6.253946e-01 0.000000e+00
9.732407e-01 7.085419e-01 0.000000e+00
9.902737e-01 6.040997e-01 0.000000e+00
1.030837e+00 6.824858e-01 0.000000e+00
9.902737e-01 6.040997e-01 0.000000e+00
1.030837e+00 6.824858e-01 0.000000e+00
1.037095e+00 5.770560e-01 0.000000e+00
1.085121e+00 6.500393e-01 0.000000e+00
1.037095e+00 5.770560e-01 0.000000e+00
1.085121e+00 6.500393e-01 0.000000e+00
1.080901e+00 5.448894e-01 0.000000e+00
1.135555e+00 6.120470e-01 0.000000e+00
1.080901e+00 5.448894e-01 0.000000e+00
1.135555e+00 6.120470e-01 0.000000e+00
1.121441e+00 5.082120e-01 0.000000e+00
1.181842e+00 5.692995e-01 0.000000e+00
1.121441e+00 5.082120e-01 0.000000e+00
1.181842e+00 5.692995e-01 0.000000e+00
1.158513e+00 4.675961e-01 0.000000e+00
1.223824e+00 5.224959e-01 0.000000e+00
1.158513e+00 4.675961e-01 0.000000e+00
1.223824e+00 5.224959e-01 0.000000e+00
1.191963e+00 4.235704e-01 0.000000e+00
1.261423e+00 4.722459e-01 0.000000e+00
1.191963e+00 4.235704e-01 0.000000e+00
1.261423e+00 4.722459e-01 0.000000e+00
1.221672e+00 3.766204e-01 0.000000e+00
1.294604e+00 4.190824e-01 0.000000e+00
1.221672e+00 3.766204e-01 0.000000e+00
1.294604e+00 4.190824e-01 0.000000e+00
1.247553e+00 3.271925e-01 0.000000e+00
1.323355e+00 3.634756e-01 0.000000e+00
1.247553e+00 3.271925e-01 0.000000e+00
1.323355e+00 3.634756e-01 0.000000e+00
1.269541e+00 2.756985e-01 0.000000e+00
1.347673e+00 3.058469e-01 0.000000e+00
1.269541e+00 2.756985e-01 0.000000e+00
1.347673e+00 3.058469e-01 0.000000e+00
1.287588e+00 2.225226e-01 0.000000e+00
1.367563e+00 2.465805e-01 0.000000e+00
1.287588e+00 2.225226e-01 0.000000e+00
1.367563e+00 2.465805e-01 0.000000e+00
1.301657e+00 1.680261e-01 0.000000e+00
1.383027e+00 1.860328e-01 0.000000e+00
1.301657e+00 1.680261e-01 0.000000e+00
1.383027e+00 1.860328e-01 0.000000e+00
1.311724e+00 1.125535e-01 0.000000e+00
1.394070e+00 1.245401e-01 0.000000e+00
1.311724e+00 1.125535e-01 0.000000e+00
1.394070e+00 1.245401e-01 0.000000e+00
1.317770e+00 5.643681e-02 0.000000e+00
1.400695e+00 6.242467e-02 0.000000e+00
1.317770e+00 5.643681e-02 0.000000e+00
1.400695e+00 6.242467e-02 0.000000e+00
1.319787e+00 6.462450e-12 0.000000e+00
1.402903e+00 6.869440e-12 0.000000e+00
</DataArray>
</Points>
<Cells>
<DataArray type="Int32" Name="connectivity" format="ascii">
0 1 3 2
4 5 7 6
8 9 11 10
12 13 15 14
16 17 19 18
20 21 23 22
24 25 27 26
28 29 31 30
32 33 35 34
36 37 39 38
40 41 43 42
44 45 47 46
48 49 51 50
52 53 55 54
56 57 59 58
60 61 63 62
64 65 67 66
68 69 71 70
72 73 75 74
76 77 79 78
80 81 83 82
84 85 87 86
88 89 91 90
92 93 95 94
96 97 99 98
100 101 103 102
104 105 107 106
108 109 111 110
112 113 115 114
116 117 119 118
</DataArray>
<DataArray type="Int32" Name="offsets" format="ascii">
4
8
12
16
20
24
28
32
36
40
44
48
52
56
60
64
68
72
76
80
84
88
92
96
100
104
108
112
116
120
</DataArray>
<DataArray type="UInt8" Name="types" format="ascii">
9
9
9
9
9
9
9
9
9
9
9
9
9
9
9
9
9
9
9
9
9
9
9
9
9
9
9
9
9
9
</DataArray>
</Cells>
<PointData>
<DataArray type="Float32" Name="V1" format="ascii">
1.909219e+01
-3.216919e-01
1.911925e+01
-2.946362e-01
1.915494e+01
-3.193485e-01
1.922714e+01
-2.471498e-01
1.930083e+01
-2.971325e-01
1.942293e+01
-1.750297e-01
1.953332e+01
-2.509785e-01
1.970651e+01
-7.779165e-02
1.985380e+01
-1.798301e-01
2.007982e+01
4.619066e-02
2.026287e+01
-8.126537e-02
2.054420e+01
2.000676e-01
2.075827e+01
4.999904e-02
2.109840e+01
3.901264e-01
2.133048e+01
2.253629e-01
2.173461e+01
6.295006e-01
2.195360e+01
4.693594e-01
2.243047e+01
9.462285e-01
2.256794e+01
8.345580e-01
2.313383e+01
1.400446e+00
2.304844e+01
1.432827e+00
2.373637e+01
2.120759e+00
2.315394e+01
2.498785e+00
2.404171e+01
3.386553e+00
2.245176e+01
4.544812e+00
2.376805e+01
5.861097e+00
2.049330e+01
8.889714e+00
2.243782e+01
1.083424e+01
1.989288e+01
1.277061e+01
2.103383e+01
1.391156e+01
2.016287e+01
1.452416e+01
2.116285e+01
1.552414e+01
2.098319e+01
1.567789e+01
2.195878e+01
1.665348e+01
2.214082e+01
1.651046e+01
2.307169e+01
1.744134e+01
2.342925e+01
1.714792e+01
2.429258e+01
1.801124e+01
2.472688e+01
1.765443e+01
2.551006e+01
1.843762e+01
2.596273e+01
1.806846e+01
2.666059e+01
1.876632e+01
2.709799e+01
1.841317e+01
2.771009e+01
1.902527e+01
2.811314e+01
1.870316e+01
2.864161e+01
1.923164e+01
2.900003e+01
1.894788e+01
2.944823e+01
1.939608e+01
2.975695e+01
1.915368e+01
3.012860e+01
1.952533e+01
3.038553e+01
1.932496e+01
3.068422e+01
1.962365e+01
3.088891e+01
1.946490e+01
3.111778e+01
1.969377e+01
3.127053e+01
1.957579e+01
3.143214e+01
1.973740e+01
3.153353e+01
1.965932e+01
3.162973e+01
1.975552e+01
3.168028e+01
1.971666e+01
3.171222e+01
1.974861e+01
</DataArray>
<DataArray type="Float32" Name="V2" format="ascii">
6.429477e-01
7.400000e-01
6.452775e-01
7.421387e-01
6.452775e-01
7.421387e-01
6.522231e-01
7.485402e-01
6.522231e-01
7.485402e-01
6.637468e-01
7.591612e-01
6.637468e-01
7.591612e-01
6.797695e-01
7.739296e-01
6.797695e-01
7.739296e-01
7.001814e-01
7.927457e-01
7.001814e-01
7.927457e-01
7.248416e-01
8.154841e-01
7.248416e-01
8.154841e-01
7.535782e-01
8.419970e-01
7.535782e-01
8.419970e-01
7.861858e-01
8.721217e-01
7.861858e-01
8.721217e-01
8.224186e-01
9.056938e-01
8.224186e-01
9.056938e-01
8.619695e-01
9.425693e-01
8.619695e-01
9.425693e-01
9.044173e-01
9.826546e-01
9.044173e-01
9.826546e-01
9.490888e-01
1.025913e+00
9.490888e-01
1.025913e+00
9.948047e-01
1.072180e+00
9.948047e-01
1.072180e+00
1.040298e+00
1.118885e+00
1.040298e+00
1.118885e+00
1.081188e+00
1.160057e+00
1.081188e+00
1.160057e+00
1.117574e+00
1.197366e+00
1.117574e+00
1.197366e+00
1.149759e+00
1.230613e+00
1.149759e+00
1.230613e+00
1.178212e+00
1.259965e+00
1.178212e+00
1.259965e+00
1.203288e+00
1.285702e+00
1.203288e+00
1.285702e+00
1.225303e+00
1.308155e+00
1.225303e+00
1.308155e+00
1.244527e+00
1.327644e+00
1.244527e+00
1.327644e+00
1.261194e+00
1.344447e+00
1.261194e+00
1.344447e+00
1.275497e+00
1.358803e+00
1.275497e+00
1.358803e+00
1.287602e+00
1.370905e+00
1.287602e+00
1.370905e+00
1.297639e+00
1.380911e+00
1.297639e+00
1.380911e+00
1.305716e+00
1.388945e+00
1.305716e+00
1.388945e+00
1.311917e+00
1.395102e+00
1.311917e+00
1.395102e+00
1.316303e+00
1.399451e+00
1.316303e+00
1.399451e+00
1.318918e+00
1.402042e+00
1.318918e+00
1.402042e+00
1.319787e+00
1.402903e+00
</DataArray>
<DataArray type="Float32" Name="V3" format="ascii">
0.000000e+00
0.000000e+00
2.660616e-02
2.143130e-02
2.660616e-02
2.143130e-02
5.279500e-02
4.247324e-02
5.279500e-02
4.247324e-02
7.814861e-02
6.273981e-02
7.814861e-02
6.273981e-02
1.022544e-01
8.184895e-02
1.022544e-01
8.184895e-02
1.247045e-01
9.942677e-02
1.247045e-01
9.942677e-02
1.450970e-01
1.151116e-01
1.450970e-01
1.151116e-01
1.630344e-01
1.285604e-01
1.630344e-01
1.285604e-01
1.781207e-01
1.394584e-01
1.781207e-01
1.394584e-01
1.899527e-01
1.475341e-01
1.899527e-01
1.475341e-01
1.981065e-01
1.525780e-01
1.981065e-01
1.525780e-01
2.021182e-01
1.544573e-01
2.021182e-01
1.544573e-01
2.014866e-01
1.530843e-01
2.014866e-01
1.530843e-01
1.958367e-01
1.481605e-01
1.958367e-01
1.481605e-01
1.861593e-01
1.391308e-01
1.861593e-01
1.391308e-01
1.757197e-01
1.314258e-01
1.757197e-01
1.314258e-01
1.647163e-01
1.246759e-01
1.647163e-01
1.246759e-01
1.537258e-01
1.183356e-01
1.537258e-01
1.183356e-01
1.427410e-01
1.119255e-01
1.427410e-01
1.119255e-01
1.317183e-01
1.051620e-01
1.317183e-01
1.051620e-01
1.205961e-01
9.789331e-02
1.205961e-01
9.789331e-02
1.093229e-01
9.005737e-02
1.093229e-01
9.005737e-02
9.786408e-02
8.164887e-02
9.786408e-02
8.164887e-02
8.620250e-02
7.269742e-02
8.620250e-02
7.269742e-02
7.433658e-02
6.325320e-02
7.433658e-02
6.325320e-02
6.227717e-02
5.337809e-02
6.227717e-02
5.337809e-02
5.004470e-02
4.314019e-02
5.004470e-02
4.314019e-02
3.766664e-02
3.261070e-02
3.766664e-02
3.261070e-02
2.517553e-02
2.186218e-02
2.517553e-02
2.186218e-02
1.260729e-02
1.096759e-02
1.260729e-02
1.096759e-02
0.000000e+00
0.000000e+00
</DataArray>
<DataArray type="Float32" Name="V4" format="ascii">
8.500000e-01
1.000000e+00
8.500000e-01
1.000000e+00
8.500000e-01
1.000000e+00
8.500000e-01
1.000000e+00
8.500000e-01
1.000000e+00
8.500000e-01
1.000000e+00
8.500000e-01
1.000000e+00
8.500000e-01
1.000000e+00
8.500000e-01
1.000000e+00
8.500000e-01
1.000000e+00
8.500000e-01
1.000000e+00
8.500000e-01
1.000000e+00
8.500000e-01
1.000000e+00
8.500000e-01
1.000000e+00
8.500000e-01
1.000000e+00
8.500000e-01
1.000000e+00
8.500000e-01
1.000000e+00
8.500000e-01
1.000000e+00
8.500000e-01
1.000000e+00
8.500000e-01
1.000000e+00
8.500000e-01
1.000000e+00
8.500000e-01
1.000000e+00
8.500000e-01
1.000000e+00
8.500000e-01
1.000000e+00
8.500000e-01
1.000000e+00
8.500000e-01
1.000000e+00
8.500000e-01
1.000000e+00
8.500000e-01
1.000000e+00
8.500000e-01
1.000000e+00
8.500000e-01
1.000000e+00
8.500000e-01
1.000000e+00
8.500000e-01
1.000000e+00
8.500000e-01
1.000000e+00
8.500000e-01
1.000000e+00
8.500000e-01
1.000000e+00
8.500000e-01
1.000000e+00
8.500000e-01
1.000000e+00
8.500000e-01
1.000000e+00
8.500000e-01
1.000000e+00
8.500000e-01
1.000000e+00
8.500000e-01
1.000000e+00
8.500000e-01
1.000000e+00
8.500000e-01
1.000000e+00
8.500000e-01
1.000000e+00
8.500000e-01
1.000000e+00
8.500000e-01
1.000000e+00
8.500000e-01
1.000000e+00
8.500000e-01
1.000000e+00
8.500000e-01
1.000000e+00
8.500000e-01
1.000000e+00
8.500000e-01
1.000000e+00
8.500000e-01
1.000000e+00
8.500000e-01
1.000000e+00
8.500000e-01
1.000000e+00
8.500000e-01
1.000000e+00
8.500000e-01
1.000000e+00
8.500000e-01
1.000000e+00
8.500000e-01
1.000000e+00
8.500000e-01
1.000000e+00
8.500000e-01
1.000000e+00
</DataArray>
<DataArray type="Float32" Name="V5" format="ascii">
0.000000e+00
0.000000e+00
5.235988e-02
5.235988e-02
5.235988e-02
5.235988e-02
1.047198e-01
1.047198e-01
1.047198e-01
1.047198e-01
1.570796e-01
1.570796e-01
1.570796e-01
1.570796e-01
2.094395e-01
2.094395e-01
2.094395e-01
2.094395e-01
2.617994e-01
2.617994e-01
2.617994e-01
2.617994e-01
3.141593e-01
3.141593e-01
3.141593e-01
3.141593e-01
3.665191e-01
3.665191e-01
3.665191e-01
3.665191e-01
4.188790e-01
4.188790e-01
4.188790e-01
4.188790e-01
4.712389e-01
4.712389e-01
4.712389e-01
4.712389e-01
5.235988e-01
5.235988e-01
5.235988e-01
5.235988e-01
5.759587e-01
5.759587e-01
5.759587e-01
5.759587e-01
6.283185e-01
6.283185e-01
6.283185e-01
6.283185e-01
6.806784e-01
6.806784e-01
6.806784e-01
6.806784e-01
7.330383e-01
7.330383e-01
7.330383e-01
7.330383e-01
7.853982e-01
7.853982e-01
7.853982e-01
7.853982e-01
8.377580e-01
8.377580e-01
8.377580e-01
8.377580e-01
8.901179e-01
8.901179e-01
8.901179e-01
8.901179e-01
9.424778e-01
9.424778e-01
9.424778e-01
9.424778e-01
9.948377e-01
9.948377e-01
9.948377e-01
9.948377e-01
1.047198e+00
1.047198e+00
1.047198e+00
1.047198e+00
1.099557e+00
1.099557e+00
1.099557e+00
1.099557e+00
1.151917e+00
1.151917e+00
1.151917e+00
1.151917e+00
1.204277e+00
1.204277e+00
1.204277e+00
1.204277e+00
1.256637e+00
1.256637e+00
1.256637e+00
1.256637e+00
1.308997e+00
1.308997e+00
1.308997e+00
1.308997e+00
1.361357e+00
1.361357e+00
1.361357e+00
1.361357e+00
1.413717e+00
1.413717e+00
1.413717e+00
1.413717e+00
1.466077e+00
1.466077e+00
1.466077e+00
1.466077e+00
1.518436e+00
1.518436e+00
1.518436e+00
1.518436e+00
1.570796e+00
1.570796e+00
</DataArray>
</PointData>
</Piece></UnstructuredGrid>
</VTKFile>
