<?xml version="1.0"?>
<VTKFile type="UnstructuredGrid" version="0.1" byte_order="LittleEndian" compressor="vtkZLibDataCompressor">
<UnstructuredGrid>
<Piece NumberOfPoints="120" NumberOfCells="30">
<Points>
<DataArray type="Float32" NumberOfComponents="3" format="ascii">
0.000000e+00 4.261106e-01 0.000000e+00
0.000000e+00 4.800000e-01 0.000000e+00
8.092112e-02 4.261505e-01 0.000000e+00
8.089843e-02 4.800000e-01 0.000000e+00
8.092112e-02 4.261505e-01 0.000000e+00
8.089843e-02 4.800000e-01 0.000000e+00
1.618334e-01 4.262104e-01 0.000000e+00
1.617872e-01 4.800000e-01 0.000000e+00
1.618334e-01 4.262104e-01 0.000000e+00
1.617872e-01 4.800000e-01 0.000000e+00
2.427239e-01 4.263098e-01 0.000000e+00
2.426545e-01 4.800000e-01 0.000000e+00
2.427239e-01 4.263098e-01 0.000000e+00
2.426545e-01 4.800000e-01 0.000000e+00
3.235818e-01 4.264487e-01 0.000000e+00
3.234895e-01 4.800000e-01 0.000000e+00
3.235818e-01 4.264487e-01 0.000000e+00
3.234895e-01 4.800000e-01 0.000000e+00
4.043957e-01 4.266267e-01 0.000000e+00
4.042809e-01 4.800000e-01 0.000000e+00
4.043957e-01 4.266267e-01 0.000000e+00
4.042809e-01 4.800000e-01 0.000000e+00
4.851539e-01 4.268430e-01 0.000000e+00
4.850171e-01 4.800000e-01 0.000000e+00
4.851539e-01 4.268430e-01 0.000000e+00
4.850171e-01 4.800000e-01 0.000000e+00
5.658438e-01 4.270971e-01 0.000000e+00
5.656858e-01 4.800000e-01 0.000000e+00
5.658438e-01 4.270971e-01 0.000000e+00
5.656858e-01 4.800000e-01 0.000000e+00
6.464522e-01 4.273882e-01 0.000000e+00
6.462743e-01 4.800000e-01 0.000000e+00
6.464522e-01 4.273882e-01 0.000000e+00
6.462743e-01 4.800000e-01 0.000000e+00
7.269646e-01 4.277153e-01 0.000000e+00
7.267691e-01 4.800000e-01 0.000000e+00
7.269646e-01 4.277153e-01 0.000000e+00
7.267691e-01 4.800000e-01 0.000000e+00
8.073657e-01 4.280773e-01 0.000000e+00
8.071564e-01 4.800000e-01 0.000000e+00
8.073657e-01 4.280773e-01 0.000000e+00
8.071564e-01 4.800000e-01 0.000000e+00
8.876383e-01 4.284731e-01 0.000000e+00
8.874220e-01 4.800000e-01 0.000000e+00
8.876383e-01 4.284731e-01 0.000000e+00
8.874220e-01 4.800000e-01 0.000000e+00
9.677632e-01 4.289014e-01 0.000000e+00
9.675519e-01 4.800000e-01 0.000000e+00
9.677632e-01 4.289014e-01 0.000000e+00
9.675519e-01 4.800000e-01 0.000000e+00
1.047718e+00 4.293603e-01 0.000000e+00
1.047534e+00 4.800000e-01 0.000000e+00
1.047718e+00 4.293603e-01 0.000000e+00
1.047534e+00 4.800000e-01 0.000000e+00
1.127477e+00 4.298478e-01 0.000000e+00
1.127358e+00 4.800000e-01 0.000000e+00
1.127477e+00 4.298478e-01 0.000000e+00
1.127358e+00 4.800000e-01 0.000000e+00
1.207005e+00 4.303607e-01 0.000000e+00
1.207022e+00 4.800000e-01 0.000000e+00
1.207005e+00 4.303607e-01 0.000000e+00
1.207022e+00 4.800000e-01 0.000000e+00
1.286258e+00 4.308941e-01 0.000000e+00
1.286540e+00 4.800000e-01 0.000000e+00
1.286258e+00 4.308941e-01 0.000000e+00
1.286540e+00 4.800000e-01 0.000000e+00
1.365171e+00 4.314402e-01 0.000000e+00
1.365953e+00 4.800000e-01 0.000000e+00
1.365171e+00 4.314402e-01 0.000000e+00
1.365953e+00 4.800000e-01 0.000000e+00
1.443643e+00 4.319881e-01 0.000000e+00
1.445359e+00 4.800000e-01 0.000000e+00
1.443643e+00 4.319881e-01 0.000000e+00
1.445359e+00 4.800000e-01 0.000000e+00
1.521503e+00 4.325318e-01 0.000000e+00
1.524960e+00 4.800000e-01 0.000000e+00
1.521503e+00 4.325318e-01 0.000000e+00
1.524960e+00 4.800000e-01 0.000000e+00
1.598429e+00 4.331018e-01 0.000000e+00
1.605131e+00 4.800000e-01 0.000000e+00
1.598429e+00 4.331018e-01 0.000000e+00
1.605131e+00 4.800000e-01 0.000000e+00
1.673817e+00 4.337847e-01 0.000000e+00
1.686283e+00 4.800000e-01 0.000000e+00
1.673817e+00 4.337847e-01 0.000000e+00
1.686283e+00 4.800000e-01 0.000000e+00
1.747488e+00 4.308250e-01 0.000000e+00
1.763688e+00 4.747557e-01 0.000000e+00
1.747488e+00 4.308250e-01 0.000000e+00
1.763688e+00 4.747557e-01 0.000000e+00
1.816591e+00 4.086598e-01 0.000000e+00
1.837876e+00 4.493095e-01 0.000000e+00
1.816591e+00 4.086598e-01 0.000000e+00
1.837876e+00 4.493095e-01 0.000000e+00
1.878471e+00 3.725689e-01 0.000000e+00
1.905371e+00 4.089132e-01 0.000000e+00
1.878471e+00 3.725689e-01 0.000000e+00
1.905371e+00 4.089132e-01 0.000000e+00
1.931850e+00 3.254632e-01 0.000000e+00
1.963877e+00 3.565715e-01 0.000000e+00
1.931850e+00 3.254632e-01 0.000000e+00
1.963877e+00 3.565715e-01 0.000000e+00
1.976049e+00 2.697965e-01 0.000000e+00
2.012286e+00 2.950619e-01 0.000000e+00
1.976049e+00 2.697965e-01 0.000000e+00
2.012286e+00 2.950619e-01 0.000000e+00
2.010674e+00 2.076677e-01 0.000000e+00
2.050102e+00 2.267625e-01 0.000000e+00
2.010674e+00 2.076677e-01 0.000000e+00
2.050102e+00 2.267625e-01 0.000000e+00
2.035508e+00 1.409150e-01 0.000000e+00
2.077142e+00 1.536886e-01 0.000000e+00
2.035508e+00 1.409150e-01 0.000000e+00
2.077142e+00 1.536886e-01 0.000000e+00
2.050440e+00 7.118571e-02 0.000000e+00
2.093361e+00 7.758074e-02 0.000000e+00
2.050440e+00 7.118571e-02 0.000000e+00
2.093361e+00 7.758074e-02 0.000000e+00
2.055421e+00 1.006455e-11 0.000000e+00
2.098766e+00 1.027679e-11 0.000000e+00
</DataArray>
</Points>
<Cells>
<DataArray type="Int32" Name="connectivity" format="ascii">
0 1 3 2
4 5 7 6
8 9 11 10
12 13 15 14
16 17 19 18
20 21 23 22
24 25 27 26
28 29 31 30
32 33 35 34
36 37 39 38
40 41 43 42
44 45 47 46
48 49 51 50
52 53 55 54
56 57 59 58
60 61 63 62
64 65 67 66
68 69 71 70
72 73 75 74
76 77 79 78
80 81 83 82
84 85 87 86
88 89 91 90
92 93 95 94
96 97 99 98
100 101 103 102
104 105 107 106
108 109 111 110
112 113 115 114
116 117 119 118
</DataArray>
<DataArray type="Int32" Name="offsets" format="ascii">
4
8
12
16
20
24
28
32
36
40
44
48
52
56
60
64
68
72
76
80
84
88
92
96
100
104
108
112
116
120
</DataArray>
<DataArray type="UInt8" Name="types" format="ascii">
9
9
9
9
9
9
9
9
9
9
9
9
9
9
9
9
9
9
9
9
9
9
9
9
9
9
9
9
9
9
</DataArray>
</Cells>
<PointData>
<DataArray type="Float32" Name="V1" format="ascii">
1.944048e+02
8.078218e+00
1.946017e+02
8.275058e+00
1.949106e+02
8.074506e+00
1.954754e+02
8.639257e+00
1.960989e+02
8.232647e+00
1.970526e+02
9.186324e+00
1.979940e+02
8.568621e+00
1.993458e+02
9.920387e+00
2.006157e+02
9.085503e+00
2.023815e+02
1.085130e+01
2.039935e+02
9.789879e+00
2.061947e+02
1.199101e+01
2.081663e+02
1.069106e+01
2.108299e+02
1.335467e+01
2.131825e+02
1.180138e+01
2.163424e+02
1.496127e+01
2.191014e+02
1.313678e+01
2.227992e+02
1.683449e+01
2.259940e+02
1.471778e+01
2.302802e+02
1.900400e+01
2.339433e+02
1.657094e+01
2.388799e+02
2.150748e+01
2.430448e+02
1.873134e+01
2.487074e+02
2.439399e+01
2.534044e+02
2.124683e+01
2.598871e+02
2.772953e+01
2.651341e+02
2.418548e+01
2.725555e+02
3.160686e+01
2.783395e+02
2.764919e+01
2.868533e+02
3.616299e+01
2.930946e+02
3.179926e+01
3.029064e+02
4.161111e+01
3.093883e+02
3.690651e+01
3.207805e+02
4.829872e+01
3.270210e+02
4.345586e+01
3.403773e+02
5.681210e+01
3.454063e+02
5.238234e+01
3.611821e+02
6.815813e+01
3.631965e+02
6.563573e+01
3.816509e+02
8.409012e+01
3.772042e+02
8.757996e+01
3.981604e+02
1.085361e+02
3.793156e+02
1.299025e+02
4.085138e+02
1.591007e+02
4.006456e+02
1.601642e+02
4.243368e+02
1.838554e+02
4.294345e+02
1.803709e+02
4.519071e+02
2.028436e+02
4.615453e+02
1.964538e+02
4.822859e+02
2.171944e+02
4.931300e+02
2.096430e+02
5.113130e+02
2.278260e+02
5.214089e+02
2.205241e+02
5.362652e+02
2.353804e+02
5.445068e+02
2.292805e+02
5.554705e+02
2.402442e+02
5.612365e+02
2.359218e+02
5.679452e+02
2.426305e+02
5.709013e+02
2.404006e+02
5.731581e+02
2.426575e+02
</DataArray>
<DataArray type="Float32" Name="V2" format="ascii">
4.261106e-01
4.800000e-01
4.298015e-01
4.835761e-01
4.298015e-01
4.835761e-01
4.407918e-01
4.942819e-01
4.407918e-01
4.942819e-01
4.590316e-01
5.120499e-01
4.590316e-01
5.120499e-01
4.844062e-01
5.367681e-01
4.844062e-01
5.367681e-01
5.167550e-01
5.682800e-01
5.167550e-01
5.682800e-01
5.558727e-01
6.063856e-01
5.558727e-01
6.063856e-01
6.015098e-01
6.508423e-01
6.015098e-01
6.508423e-01
6.533743e-01
7.013652e-01
6.533743e-01
7.013652e-01
7.111321e-01
7.576294e-01
7.111321e-01
7.576294e-01
7.744087e-01
8.192704e-01
7.744087e-01
8.192704e-01
8.427903e-01
8.858865e-01
8.427903e-01
8.858865e-01
9.158254e-01
9.570409e-01
9.158254e-01
9.570409e-01
9.930261e-01
1.032264e+00
9.930261e-01
1.032264e+00
1.073868e+00
1.111059e+00
1.073868e+00
1.111059e+00
1.157792e+00
1.192905e+00
1.157792e+00
1.192905e+00
1.244201e+00
1.277268e+00
1.244201e+00
1.277268e+00
1.332452e+00
1.363619e+00
1.332452e+00
1.363619e+00
1.421848e+00
1.451457e+00
1.421848e+00
1.451457e+00
1.511614e+00
1.540366e+00
1.511614e+00
1.540366e+00
1.600831e+00
1.630084e+00
1.600831e+00
1.630084e+00
1.688316e+00
1.720405e+00
1.688316e+00
1.720405e+00
1.771642e+00
1.804310e+00
1.771642e+00
1.804310e+00
1.842384e+00
1.876823e+00
1.842384e+00
1.876823e+00
1.901663e+00
1.938477e+00
1.901663e+00
1.938477e+00
1.950260e+00
1.989247e+00
1.950260e+00
1.989247e+00
1.988961e+00
2.029659e+00
1.988961e+00
2.029659e+00
2.018406e+00
2.060335e+00
2.018406e+00
2.060335e+00
2.039087e+00
2.081828e+00
2.039087e+00
2.081828e+00
2.051355e+00
2.094553e+00
2.051355e+00
2.094553e+00
2.055421e+00
2.098766e+00
</DataArray>
<DataArray type="Float32" Name="V3" format="ascii">
0.000000e+00
0.000000e+00
5.850723e-02
5.566630e-02
5.850723e-02
5.566630e-02
1.163957e-01
1.107272e-01
1.163957e-01
1.107272e-01
1.730460e-01
1.645785e-01
1.730460e-01
1.645785e-01
2.278471e-01
2.166228e-01
2.278471e-01
2.166228e-01
2.801972e-01
2.662722e-01
2.801972e-01
2.662722e-01
3.295071e-01
3.129505e-01
3.295071e-01
3.129505e-01
3.752028e-01
3.560966e-01
3.752028e-01
3.560966e-01
4.167290e-01
3.951673e-01
4.167290e-01
3.951673e-01
4.535515e-01
4.296406e-01
4.535515e-01
4.296406e-01
4.851605e-01
4.590180e-01
4.851605e-01
4.590180e-01
5.110729e-01
4.828280e-01
5.110729e-01
4.828280e-01
5.308350e-01
5.006290e-01
5.308350e-01
5.006290e-01
5.440247e-01
5.120127e-01
5.440247e-01
5.120127e-01
5.502541e-01
5.166073e-01
5.502541e-01
5.166073e-01
5.491705e-01
5.140824e-01
5.491705e-01
5.140824e-01
5.404581e-01
5.041540e-01
5.404581e-01
5.041540e-01
5.238383e-01
4.865922e-01
5.238383e-01
4.865922e-01
4.990666e-01
4.612325e-01
4.990666e-01
4.612325e-01
4.659184e-01
4.279907e-01
4.659184e-01
4.279907e-01
4.241373e-01
3.868731e-01
4.241373e-01
3.868731e-01
3.733922e-01
3.378734e-01
3.733922e-01
3.378734e-01
3.171892e-01
2.836458e-01
3.171892e-01
2.836458e-01
2.694910e-01
2.391693e-01
2.694910e-01
2.391693e-01
2.261455e-01
1.998925e-01
2.261455e-01
1.998925e-01
1.856263e-01
1.638670e-01
1.856263e-01
1.638670e-01
1.469428e-01
1.297636e-01
1.469428e-01
1.297636e-01
1.094278e-01
9.673593e-02
1.094278e-01
9.673593e-02
7.262547e-02
6.427375e-02
7.262547e-02
6.427375e-02
3.622357e-02
3.208364e-02
3.622357e-02
3.208364e-02
0.000000e+00
0.000000e+00
</DataArray>
<DataArray type="Float32" Name="V4" format="ascii">
8.500000e-01
1.000000e+00
8.500000e-01
1.000000e+00
8.500000e-01
1.000000e+00
8.500000e-01
1.000000e+00
8.500000e-01
1.000000e+00
8.500000e-01
1.000000e+00
8.500000e-01
1.000000e+00
8.500000e-01
1.000000e+00
8.500000e-01
1.000000e+00
8.500000e-01
1.000000e+00
8.500000e-01
1.000000e+00
8.500000e-01
1.000000e+00
8.500000e-01
1.000000e+00
8.500000e-01
1.000000e+00
8.500000e-01
1.000000e+00
8.500000e-01
1.000000e+00
8.500000e-01
1.000000e+00
8.500000e-01
1.000000e+00
8.500000e-01
1.000000e+00
8.500000e-01
1.000000e+00
8.500000e-01
1.000000e+00
8.500000e-01
1.000000e+00
8.500000e-01
1.000000e+00
8.500000e-01
1.000000e+00
8.500000e-01
1.000000e+00
8.500000e-01
1.000000e+00
8.500000e-01
1.000000e+00
8.500000e-01
1.000000e+00
8.500000e-01
1.000000e+00
8.500000e-01
1.000000e+00
8.500000e-01
1.000000e+00
8.500000e-01
1.000000e+00
8.500000e-01
1.000000e+00
8.500000e-01
1.000000e+00
8.500000e-01
1.000000e+00
8.500000e-01
1.000000e+00
8.500000e-01
1.000000e+00
8.500000e-01
1.000000e+00
8.500000e-01
1.000000e+00
8.500000e-01
1.000000e+00
8.500000e-01
1.000000e+00
8.500000e-01
1.000000e+00
8.500000e-01
1.000000e+00
8.500000e-01
1.000000e+00
8.500000e-01
1.000000e+00
8.500000e-01
1.000000e+00
8.500000e-01
1.000000e+00
8.500000e-01
1.000000e+00
8.500000e-01
1.000000e+00
8.500000e-01
1.000000e+00
8.500000e-01
1.000000e+00
8.500000e-01
1.000000e+00
8.500000e-01
1.000000e+00
8.500000e-01
1.000000e+00
8.500000e-01
1.000000e+00
8.500000e-01
1.000000e+00
8.500000e-01
1.000000e+00
8.500000e-01
1.000000e+00
8.500000e-01
1.000000e+00
8.500000e-01
1.000000e+00
</DataArray>
<DataArray type="Float32" Name="V5" format="ascii">
0.000000e+00
0.000000e+00
5.235988e-02
5.235988e-02
5.235988e-02
5.235988e-02
1.047198e-01
1.047198e-01
1.047198e-01
1.047198e-01
1.570796e-01
1.570796e-01
1.570796e-01
1.570796e-01
2.094395e-01
2.094395e-01
2.094395e-01
2.094395e-01
2.617994e-01
2.617994e-01
2.617994e-01
2.617994e-01
3.141593e-01
3.141593e-01
3.141593e-01
3.141593e-01
3.665191e-01
3.665191e-01
3.665191e-01
3.665191e-01
4.188790e-01
4.188790e-01
4.188790e-01
4.188790e-01
4.712389e-01
4.712389e-01
4.712389e-01
4.712389e-01
5.235988e-01
5.235988e-01
5.235988e-01
5.235988e-01
5.759587e-01
5.759587e-01
5.759587e-01
5.759587e-01
6.283185e-01
6.283185e-01
6.283185e-01
6.283185e-01
6.806784e-01
6.806784e-01
6.806784e-01
6.806784e-01
7.330383e-01
7.330383e-01
7.330383e-01
7.330383e-01
7.853982e-01
7.853982e-01
7.853982e-01
7.853982e-01
8.377580e-01
8.377580e-01
8.377580e-01
8.377580e-01
8.901179e-01
8.901179e-01
8.901179e-01
8.901179e-01
9.424778e-01
9.424778e-01
9.424778e-01
9.424778e-01
9.948377e-01
9.948377e-01
9.948377e-01
9.948377e-01
1.047198e+00
1.047198e+00
1.047198e+00
1.047198e+00
1.099557e+00
1.099557e+00
1.099557e+00
1.099557e+00
1.151917e+00
1.151917e+00
1.151917e+00
1.151917e+00
1.204277e+00
1.204277e+00
1.204277e+00
1.204277e+00
1.256637e+00
1.256637e+00
1.256637e+00
1.256637e+00
1.308997e+00
1.308997e+00
1.308997e+00
1.308997e+00
1.361357e+00
1.361357e+00
1.361357e+00
1.361357e+00
1.413717e+00
1.413717e+00
1.413717e+00
1.413717e+00
1.466077e+00
1.466077e+00
1.466077e+00
1.466077e+00
1.518436e+00
1.518436e+00
1.518436e+00
1.518436e+00
1.570796e+00
1.570796e+00
</DataArray>
</PointData>
</Piece></UnstructuredGrid>
</VTKFile>
