<?xml version="1.0"?>
<VTKFile type="UnstructuredGrid" version="0.1" byte_order="LittleEndian" compressor="vtkZLibDataCompressor">
<UnstructuredGrid>
<Piece NumberOfPoints="120" NumberOfCells="30">
<Points>
<DataArray type="Float32" NumberOfComponents="3" format="ascii">
0.000000e+00 4.109978e-01 0.000000e+00
0.000000e+00 4.600000e-01 0.000000e+00
8.486175e-02 4.110380e-01 0.000000e+00
8.484479e-02 4.600000e-01 0.000000e+00
8.486175e-02 4.110380e-01 0.000000e+00
8.484479e-02 4.600000e-01 0.000000e+00
1.697144e-01 4.110929e-01 0.000000e+00
1.696798e-01 4.600000e-01 0.000000e+00
1.697144e-01 4.110929e-01 0.000000e+00
1.696798e-01 4.600000e-01 0.000000e+00
2.545447e-01 4.111836e-01 0.000000e+00
2.544926e-01 4.600000e-01 0.000000e+00
2.545447e-01 4.111836e-01 0.000000e+00
2.544926e-01 4.600000e-01 0.000000e+00
3.393414e-01 4.113104e-01 0.000000e+00
3.392719e-01 4.600000e-01 0.000000e+00
3.393414e-01 4.113104e-01 0.000000e+00
3.392719e-01 4.600000e-01 0.000000e+00
4.240928e-01 4.114729e-01 0.000000e+00
4.240061e-01 4.600000e-01 0.000000e+00
4.240928e-01 4.114729e-01 0.000000e+00
4.240061e-01 4.600000e-01 0.000000e+00
5.087869e-01 4.116706e-01 0.000000e+00
5.086831e-01 4.600000e-01 0.000000e+00
5.087869e-01 4.116706e-01 0.000000e+00
5.086831e-01 4.600000e-01 0.000000e+00
5.934109e-01 4.119028e-01 0.000000e+00
5.932903e-01 4.600000e-01 0.000000e+00
5.934109e-01 4.119028e-01 0.000000e+00
5.932903e-01 4.600000e-01 0.000000e+00
6.779512e-01 4.121689e-01 0.000000e+00
6.778144e-01 4.600000e-01 0.000000e+00
6.779512e-01 4.121689e-01 0.000000e+00
6.778144e-01 4.600000e-01 0.000000e+00
7.623934e-01 4.124680e-01 0.000000e+00
7.622414e-01 4.600000e-01 0.000000e+00
7.623934e-01 4.124680e-01 0.000000e+00
7.622414e-01 4.600000e-01 0.000000e+00
8.467219e-01 4.127993e-01 0.000000e+00
8.465568e-01 4.600000e-01 0.000000e+00
8.467219e-01 4.127993e-01 0.000000e+00
8.465568e-01 4.600000e-01 0.000000e+00
9.309198e-01 4.131617e-01 0.000000e+00
9.307453e-01 4.600000e-01 0.000000e+00
9.309198e-01 4.131617e-01 0.000000e+00
9.307453e-01 4.600000e-01 0.000000e+00
1.014968e+00 4.135540e-01 0.000000e+00
1.014791e+00 4.600000e-01 0.000000e+00
1.014968e+00 4.135540e-01 0.000000e+00
1.014791e+00 4.600000e-01 0.000000e+00
1.098846e+00 4.139748e-01 0.000000e+00
1.098680e+00 4.600000e-01 0.000000e+00
1.098846e+00 4.139748e-01 0.000000e+00
1.098680e+00 4.600000e-01 0.000000e+00
1.182529e+00 4.144221e-01 0.000000e+00
1.182397e+00 4.600000e-01 0.000000e+00
1.182529e+00 4.144221e-01 0.000000e+00
1.182397e+00 4.600000e-01 0.000000e+00
1.265987e+00 4.148933e-01 0.000000e+00
1.265934e+00 4.600000e-01 0.000000e+00
1.265987e+00 4.148933e-01 0.000000e+00
1.265934e+00 4.600000e-01 0.000000e+00
1.349182e+00 4.153841e-01 0.000000e+00
1.349288e+00 4.600000e-01 0.000000e+00
1.349182e+00 4.153841e-01 0.000000e+00
1.349288e+00 4.600000e-01 0.000000e+00
1.432064e+00 4.158877e-01 0.000000e+00
1.432477e+00 4.600000e-01 0.000000e+00
1.432064e+00 4.158877e-01 0.000000e+00
1.432477e+00 4.600000e-01 0.000000e+00
1.514558e+00 4.163935e-01 0.000000e+00
1.515551e+00 4.600000e-01 0.000000e+00
1.514558e+00 4.163935e-01 0.000000e+00
1.515551e+00 4.600000e-01 0.000000e+00
1.596548e+00 4.168895e-01 0.000000e+00
1.598631e+00 4.600000e-01 0.000000e+00
1.596548e+00 4.168895e-01 0.000000e+00
1.598631e+00 4.600000e-01 0.000000e+00
1.677830e+00 4.173784e-01 0.000000e+00
1.681964e+00 4.600000e-01 0.000000e+00
1.677830e+00 4.173784e-01 0.000000e+00
1.681964e+00 4.600000e-01 0.000000e+00
1.758008e+00 4.179246e-01 0.000000e+00
1.765995e+00 4.600000e-01 0.000000e+00
1.758008e+00 4.179246e-01 0.000000e+00
1.765995e+00 4.600000e-01 0.000000e+00
1.836580e+00 4.185417e-01 0.000000e+00
1.849852e+00 4.600000e-01 0.000000e+00
1.836580e+00 4.185417e-01 0.000000e+00
1.849852e+00 4.600000e-01 0.000000e+00
1.913013e+00 4.082443e-01 0.000000e+00
1.929850e+00 4.465583e-01 0.000000e+00
1.913013e+00 4.082443e-01 0.000000e+00
1.929850e+00 4.465583e-01 0.000000e+00
1.982891e+00 3.784342e-01 0.000000e+00
2.004626e+00 4.132334e-01 0.000000e+00
1.982891e+00 3.784342e-01 0.000000e+00
2.004626e+00 4.132334e-01 0.000000e+00
2.043684e+00 3.343556e-01 0.000000e+00
2.070506e+00 3.646147e-01 0.000000e+00
2.043684e+00 3.343556e-01 0.000000e+00
2.070506e+00 3.646147e-01 0.000000e+00
2.094228e+00 2.793828e-01 0.000000e+00
2.125482e+00 3.042352e-01 0.000000e+00
2.094228e+00 2.793828e-01 0.000000e+00
2.125482e+00 3.042352e-01 0.000000e+00
2.133948e+00 2.162473e-01 0.000000e+00
2.168650e+00 2.351619e-01 0.000000e+00
2.133948e+00 2.162473e-01 0.000000e+00
2.168650e+00 2.351619e-01 0.000000e+00
2.162505e+00 1.472795e-01 0.000000e+00
2.199618e+00 1.599841e-01 0.000000e+00
2.162505e+00 1.472795e-01 0.000000e+00
2.199618e+00 1.599841e-01 0.000000e+00
2.179703e+00 7.455767e-02 0.000000e+00
2.218229e+00 8.093164e-02 0.000000e+00
2.179703e+00 7.455767e-02 0.000000e+00
2.218229e+00 8.093164e-02 0.000000e+00
2.185445e+00 1.070123e-11 0.000000e+00
2.224436e+00 1.089215e-11 0.000000e+00
</DataArray>
</Points>
<Cells>
<DataArray type="Int32" Name="connectivity" format="ascii">
0 1 3 2
4 5 7 6
8 9 11 10
12 13 15 14
16 17 19 18
20 21 23 22
24 25 27 26
28 29 31 30
32 33 35 34
36 37 39 38
40 41 43 42
44 45 47 46
48 49 51 50
52 53 55 54
56 57 59 58
60 61 63 62
64 65 67 66
68 69 71 70
72 73 75 74
76 77 79 78
80 81 83 82
84 85 87 86
88 89 91 90
92 93 95 94
96 97 99 98
100 101 103 102
104 105 107 106
108 109 111 110
112 113 115 114
116 117 119 118
</DataArray>
<DataArray type="Int32" Name="offsets" format="ascii">
4
8
12
16
20
24
28
32
36
40
44
48
52
56
60
64
68
72
76
80
84
88
92
96
100
104
108
112
116
120
</DataArray>
<DataArray type="UInt8" Name="types" format="ascii">
9
9
9
9
9
9
9
9
9
9
9
9
9
9
9
9
9
9
9
9
9
9
9
9
9
9
9
9
9
9
</DataArray>
</Cells>
<PointData>
<DataArray type="Float32" Name="V1" format="ascii">
2.818353e+02
1.738293e+01
2.821181e+02
1.766573e+01
2.825474e+02
1.738232e+01
2.833569e+02
1.819181e+01
2.842246e+02
1.762162e+01
2.855888e+02
1.898581e+01
2.869013e+02
1.812140e+01
2.888331e+02
2.005320e+01
2.906050e+02
1.888614e+01
2.931272e+02
2.140837e+01
2.953776e+02
1.992533e+01
2.985207e+02
2.306835e+01
3.012743e+02
2.125235e+01
3.050767e+02
2.505476e+01
3.083641e+02
2.288472e+01
3.128738e+02
2.739443e+01
3.167316e+02
2.484484e+01
3.220073e+02
3.012053e+01
3.264788e+02
2.716099e+01
3.325919e+02
3.327407e+01
3.377263e+02
2.986893e+01
3.447634e+02
3.690609e+01
3.506148e+02
3.301439e+01
3.586816e+02
4.108114e+01
3.653057e+02
3.665715e+01
3.745316e+02
4.588306e+01
3.819784e+02
4.087791e+01
3.925248e+02
5.142434e+01
4.008225e+02
4.579062e+01
4.128947e+02
5.786284e+01
4.220187e+02
5.156469e+01
4.358854e+02
6.543138e+01
4.456964e+02
5.846769e+01
4.617196e+02
7.449098e+01
4.718479e+02
6.695152e+01
4.905226e+02
8.562622e+01
5.001606e+02
7.784051e+01
5.221317e+02
9.981167e+01
5.296978e+02
9.277447e+01
5.556216e+02
1.186984e+02
5.582692e+02
1.152722e+02
5.881620e+02
1.451650e+02
5.769054e+02
1.542266e+02
6.154917e+02
1.928129e+02
5.970562e+02
2.110091e+02
6.371783e+02
2.511311e+02
6.363856e+02
2.495775e+02
6.725584e+02
2.857502e+02
6.848579e+02
2.783622e+02
7.186571e+02
3.121615e+02
7.352748e+02
3.016392e+02
7.654747e+02
3.318391e+02
7.820717e+02
3.206573e+02
8.072062e+02
3.457918e+02
8.211626e+02
3.359693e+02
8.399792e+02
3.547859e+02
8.498577e+02
3.476440e+02
8.614792e+02
3.592655e+02
8.665649e+02
3.555363e+02
8.704920e+02
3.594634e+02
</DataArray>
<DataArray type="Float32" Name="V2" format="ascii">
4.109978e-01
4.600000e-01
4.149160e-01
4.638100e-01
4.149160e-01
4.638100e-01
4.265809e-01
4.752164e-01
4.265809e-01
4.752164e-01
4.459408e-01
4.941481e-01
4.459408e-01
4.941481e-01
4.728753e-01
5.204865e-01
4.728753e-01
5.204865e-01
5.072156e-01
5.540667e-01
5.072156e-01
5.540667e-01
5.487458e-01
5.946777e-01
5.487458e-01
5.946777e-01
5.972038e-01
6.420632e-01
5.972038e-01
6.420632e-01
6.522826e-01
6.959229e-01
6.522826e-01
6.959229e-01
7.136311e-01
7.559134e-01
7.136311e-01
7.559134e-01
7.808556e-01
8.216501e-01
7.808556e-01
8.216501e-01
8.535218e-01
8.927087e-01
8.535218e-01
8.927087e-01
9.311556e-01
9.686273e-01
9.311556e-01
9.686273e-01
1.013245e+00
1.048909e+00
1.013245e+00
1.048909e+00
1.099242e+00
1.133025e+00
1.099242e+00
1.133025e+00
1.188562e+00
1.220419e+00
1.188562e+00
1.220419e+00
1.280584e+00
1.310516e+00
1.280584e+00
1.310516e+00
1.374649e+00
1.402731e+00
1.374649e+00
1.402731e+00
1.470053e+00
1.496488e+00
1.470053e+00
1.496488e+00
1.566032e+00
1.591259e+00
1.566032e+00
1.591259e+00
1.661732e+00
1.686623e+00
1.661732e+00
1.686623e+00
1.756130e+00
1.782349e+00
1.756130e+00
1.782349e+00
1.848036e+00
1.877023e+00
1.848036e+00
1.877023e+00
1.932253e+00
1.961703e+00
1.932253e+00
1.961703e+00
2.002784e+00
2.034209e+00
2.002784e+00
2.034209e+00
2.060584e+00
2.094325e+00
2.060584e+00
2.094325e+00
2.106551e+00
2.142290e+00
2.106551e+00
2.142290e+00
2.141504e+00
2.178738e+00
2.141504e+00
2.178738e+00
2.166054e+00
2.204291e+00
2.166054e+00
2.204291e+00
2.180618e+00
2.219425e+00
2.180618e+00
2.219425e+00
2.185445e+00
2.224436e+00
</DataArray>
<DataArray type="Float32" Name="V3" format="ascii">
0.000000e+00
0.000000e+00
6.323338e-02
6.065398e-02
6.323338e-02
6.065398e-02
1.258138e-01
1.206672e-01
1.258138e-01
1.206672e-01
1.870875e-01
1.793995e-01
1.870875e-01
1.793995e-01
2.464097e-01
2.362186e-01
2.464097e-01
2.362186e-01
3.031452e-01
2.905017e-01
3.031452e-01
2.905017e-01
3.566719e-01
3.416386e-01
3.566719e-01
3.416386e-01
4.063840e-01
3.890349e-01
4.063840e-01
3.890349e-01
4.516950e-01
4.321154e-01
4.516950e-01
4.321154e-01
4.920409e-01
4.703265e-01
4.920409e-01
4.703265e-01
5.268830e-01
5.031397e-01
5.268830e-01
5.031397e-01
5.557110e-01
5.300548e-01
5.557110e-01
5.300548e-01
5.780456e-01
5.506023e-01
5.780456e-01
5.506023e-01
5.934410e-01
5.643473e-01
5.934410e-01
5.643473e-01
6.014876e-01
5.708923e-01
6.014876e-01
5.708923e-01
6.018139e-01
5.698811e-01
6.018139e-01
5.698811e-01
5.940885e-01
5.610033e-01
5.940885e-01
5.610033e-01
5.780216e-01
5.439997e-01
5.780216e-01
5.439997e-01
5.533655e-01
5.186707e-01
5.533655e-01
5.186707e-01
5.199092e-01
4.848884e-01
5.199092e-01
4.848884e-01
4.774545e-01
4.426102e-01
4.774545e-01
4.426102e-01
4.257453e-01
3.918821e-01
4.257453e-01
3.918821e-01
3.646477e-01
3.321717e-01
3.646477e-01
3.321717e-01
3.044336e-01
2.746985e-01
3.044336e-01
2.746985e-01
2.528347e-01
2.264551e-01
2.528347e-01
2.264551e-01
2.059816e-01
1.836957e-01
2.059816e-01
1.836957e-01
1.621369e-01
1.443257e-01
1.621369e-01
1.443257e-01
1.202380e-01
1.069849e-01
1.202380e-01
1.069849e-01
7.957073e-02
7.081494e-02
7.957073e-02
7.081494e-02
3.962136e-02
3.527241e-02
3.962136e-02
3.527241e-02
0.000000e+00
0.000000e+00
</DataArray>
<DataArray type="Float32" Name="V4" format="ascii">
8.500000e-01
1.000000e+00
8.500000e-01
1.000000e+00
8.500000e-01
1.000000e+00
8.500000e-01
1.000000e+00
8.500000e-01
1.000000e+00
8.500000e-01
1.000000e+00
8.500000e-01
1.000000e+00
8.500000e-01
1.000000e+00
8.500000e-01
1.000000e+00
8.500000e-01
1.000000e+00
8.500000e-01
1.000000e+00
8.500000e-01
1.000000e+00
8.500000e-01
1.000000e+00
8.500000e-01
1.000000e+00
8.500000e-01
1.000000e+00
8.500000e-01
1.000000e+00
8.500000e-01
1.000000e+00
8.500000e-01
1.000000e+00
8.500000e-01
1.000000e+00
8.500000e-01
1.000000e+00
8.500000e-01
1.000000e+00
8.500000e-01
1.000000e+00
8.500000e-01
1.000000e+00
8.500000e-01
1.000000e+00
8.500000e-01
1.000000e+00
8.500000e-01
1.000000e+00
8.500000e-01
1.000000e+00
8.500000e-01
1.000000e+00
8.500000e-01
1.000000e+00
8.500000e-01
1.000000e+00
8.500000e-01
1.000000e+00
8.500000e-01
1.000000e+00
8.500000e-01
1.000000e+00
8.500000e-01
1.000000e+00
8.500000e-01
1.000000e+00
8.500000e-01
1.000000e+00
8.500000e-01
1.000000e+00
8.500000e-01
1.000000e+00
8.500000e-01
1.000000e+00
8.500000e-01
1.000000e+00
8.500000e-01
1.000000e+00
8.500000e-01
1.000000e+00
8.500000e-01
1.000000e+00
8.500000e-01
1.000000e+00
8.500000e-01
1.000000e+00
8.500000e-01
1.000000e+00
8.500000e-01
1.000000e+00
8.500000e-01
1.000000e+00
8.500000e-01
1.000000e+00
8.500000e-01
1.000000e+00
8.500000e-01
1.000000e+00
8.500000e-01
1.000000e+00
8.500000e-01
1.000000e+00
8.500000e-01
1.000000e+00
8.500000e-01
1.000000e+00
8.500000e-01
1.000000e+00
8.500000e-01
1.000000e+00
8.500000e-01
1.000000e+00
8.500000e-01
1.000000e+00
8.500000e-01
1.000000e+00
</DataArray>
<DataArray type="Float32" Name="V5" format="ascii">
0.000000e+00
0.000000e+00
5.235988e-02
5.235988e-02
5.235988e-02
5.235988e-02
1.047198e-01
1.047198e-01
1.047198e-01
1.047198e-01
1.570796e-01
1.570796e-01
1.570796e-01
1.570796e-01
2.094395e-01
2.094395e-01
2.094395e-01
2.094395e-01
2.617994e-01
2.617994e-01
2.617994e-01
2.617994e-01
3.141593e-01
3.141593e-01
3.141593e-01
3.141593e-01
3.665191e-01
3.665191e-01
3.665191e-01
3.665191e-01
4.188790e-01
4.188790e-01
4.188790e-01
4.188790e-01
4.712389e-01
4.712389e-01
4.712389e-01
4.712389e-01
5.235988e-01
5.235988e-01
5.235988e-01
5.235988e-01
5.759587e-01
5.759587e-01
5.759587e-01
5.759587e-01
6.283185e-01
6.283185e-01
6.283185e-01
6.283185e-01
6.806784e-01
6.806784e-01
6.806784e-01
6.806784e-01
7.330383e-01
7.330383e-01
7.330383e-01
7.330383e-01
7.853982e-01
7.853982e-01
7.853982e-01
7.853982e-01
8.377580e-01
8.377580e-01
8.377580e-01
8.377580e-01
8.901179e-01
8.901179e-01
8.901179e-01
8.901179e-01
9.424778e-01
9.424778e-01
9.424778e-01
9.424778e-01
9.948377e-01
9.948377e-01
9.948377e-01
9.948377e-01
1.047198e+00
1.047198e+00
1.047198e+00
1.047198e+00
1.099557e+00
1.099557e+00
1.099557e+00
1.099557e+00
1.151917e+00
1.151917e+00
1.151917e+00
1.151917e+00
1.204277e+00
1.204277e+00
1.204277e+00
1.204277e+00
1.256637e+00
1.256637e+00
1.256637e+00
1.256637e+00
1.308997e+00
1.308997e+00
1.308997e+00
1.308997e+00
1.361357e+00
1.361357e+00
1.361357e+00
1.361357e+00
1.413717e+00
1.413717e+00
1.413717e+00
1.413717e+00
1.466077e+00
1.466077e+00
1.466077e+00
1.466077e+00
1.518436e+00
1.518436e+00
1.518436e+00
1.518436e+00
1.570796e+00
1.570796e+00
</DataArray>
</PointData>
</Piece></UnstructuredGrid>
</VTKFile>
