<?xml version="1.0"?>
<VTKFile type="UnstructuredGrid" version="0.1" byte_order="LittleEndian" compressor="vtkZLibDataCompressor">
<UnstructuredGrid>
<Piece NumberOfPoints="120" NumberOfCells="30">
<Points>
<DataArray type="Float32" NumberOfComponents="3" format="ascii">
0.000000e+00 5.553529e-01 0.000000e+00
0.000000e+00 6.400000e-01 0.000000e+00
6.459358e-02 5.553998e-01 0.000000e+00
6.451413e-02 6.400000e-01 0.000000e+00
6.459358e-02 5.553998e-01 0.000000e+00
6.451413e-02 6.400000e-01 0.000000e+00
1.291841e-01 5.555050e-01 0.000000e+00
1.290242e-01 6.400000e-01 0.000000e+00
1.291841e-01 5.555050e-01 0.000000e+00
1.290242e-01 6.400000e-01 0.000000e+00
1.937653e-01 5.556804e-01 0.000000e+00
1.935267e-01 6.400000e-01 0.000000e+00
1.937653e-01 5.556804e-01 0.000000e+00
1.935267e-01 6.400000e-01 0.000000e+00
2.583326e-01 5.559251e-01 0.000000e+00
2.580176e-01 6.400000e-01 0.000000e+00
2.583326e-01 5.559251e-01 0.000000e+00
2.580176e-01 6.400000e-01 0.000000e+00
3.228804e-01 5.562382e-01 0.000000e+00
3.224928e-01 6.400000e-01 0.000000e+00
3.228804e-01 5.562382e-01 0.000000e+00
3.224928e-01 6.400000e-01 0.000000e+00
3.874023e-01 5.566186e-01 0.000000e+00
3.869488e-01 6.400000e-01 0.000000e+00
3.874023e-01 5.566186e-01 0.000000e+00
3.869488e-01 6.400000e-01 0.000000e+00
4.518902e-01 5.570651e-01 0.000000e+00
4.513830e-01 6.400000e-01 0.000000e+00
4.518902e-01 5.570651e-01 0.000000e+00
4.513830e-01 6.400000e-01 0.000000e+00
5.163337e-01 5.575768e-01 0.000000e+00
5.157951e-01 6.400000e-01 0.000000e+00
5.163337e-01 5.575768e-01 0.000000e+00
5.157951e-01 6.400000e-01 0.000000e+00
5.807184e-01 5.581532e-01 0.000000e+00
5.801899e-01 6.400000e-01 0.000000e+00
5.807184e-01 5.581532e-01 0.000000e+00
5.801899e-01 6.400000e-01 0.000000e+00
6.450227e-01 5.587944e-01 0.000000e+00
6.445825e-01 6.400000e-01 0.000000e+00
6.450227e-01 5.587944e-01 0.000000e+00
6.445825e-01 6.400000e-01 0.000000e+00
7.092126e-01 5.595022e-01 0.000000e+00
7.090082e-01 6.400000e-01 0.000000e+00
7.092126e-01 5.595022e-01 0.000000e+00
7.090082e-01 6.400000e-01 0.000000e+00
7.732296e-01 5.602802e-01 0.000000e+00
7.735397e-01 6.400000e-01 0.000000e+00
7.732296e-01 5.602802e-01 0.000000e+00
7.735397e-01 6.400000e-01 0.000000e+00
8.369690e-01 5.611318e-01 0.000000e+00
8.383160e-01 6.400000e-01 0.000000e+00
8.369690e-01 5.611318e-01 0.000000e+00
8.383160e-01 6.400000e-01 0.000000e+00
9.002326e-01 5.620498e-01 0.000000e+00
9.035799e-01 6.400000e-01 0.000000e+00
9.002326e-01 5.620498e-01 0.000000e+00
9.035799e-01 6.400000e-01 0.000000e+00
9.626285e-01 5.629578e-01 0.000000e+00
9.696840e-01 6.400000e-01 0.000000e+00
9.626285e-01 5.629578e-01 0.000000e+00
9.696840e-01 6.400000e-01 0.000000e+00
1.023483e+00 5.635288e-01 0.000000e+00
1.036709e+00 6.400000e-01 0.000000e+00
1.023483e+00 5.635288e-01 0.000000e+00
1.036709e+00 6.400000e-01 0.000000e+00
1.083064e+00 5.616815e-01 0.000000e+00
1.101792e+00 6.371600e-01 0.000000e+00
1.083064e+00 5.616815e-01 0.000000e+00
1.101792e+00 6.371600e-01 0.000000e+00
1.140062e+00 5.499828e-01 0.000000e+00
1.165482e+00 6.221486e-01 0.000000e+00
1.140062e+00 5.499828e-01 0.000000e+00
1.165482e+00 6.221486e-01 0.000000e+00
1.193897e+00 5.300315e-01 0.000000e+00
1.226984e+00 5.978568e-01 0.000000e+00
1.193897e+00 5.300315e-01 0.000000e+00
1.226984e+00 5.978568e-01 0.000000e+00
1.244125e+00 5.025246e-01 0.000000e+00
1.284635e+00 5.651497e-01 0.000000e+00
1.244125e+00 5.025246e-01 0.000000e+00
1.284635e+00 5.651497e-01 0.000000e+00
1.290335e+00 4.685178e-01 0.000000e+00
1.337495e+00 5.253133e-01 0.000000e+00
1.290335e+00 4.685178e-01 0.000000e+00
1.337495e+00 5.253133e-01 0.000000e+00
1.332189e+00 4.289428e-01 0.000000e+00
1.385046e+00 4.795326e-01 0.000000e+00
1.332189e+00 4.289428e-01 0.000000e+00
1.385046e+00 4.795326e-01 0.000000e+00
1.369442e+00 3.846602e-01 0.000000e+00
1.427043e+00 4.288610e-01 0.000000e+00
1.369442e+00 3.846602e-01 0.000000e+00
1.427043e+00 4.288610e-01 0.000000e+00
1.401924e+00 3.364482e-01 0.000000e+00
1.463389e+00 3.742044e-01 0.000000e+00
1.401924e+00 3.364482e-01 0.000000e+00
1.463389e+00 3.742044e-01 0.000000e+00
1.429522e+00 2.850092e-01 0.000000e+00
1.494070e+00 3.163389e-01 0.000000e+00
1.429522e+00 2.850092e-01 0.000000e+00
1.494070e+00 3.163389e-01 0.000000e+00
1.452165e+00 2.309792e-01 0.000000e+00
1.519105e+00 2.559356e-01 0.000000e+00
1.452165e+00 2.309792e-01 0.000000e+00
1.519105e+00 2.559356e-01 0.000000e+00
1.469808e+00 1.749392e-01 0.000000e+00
1.538529e+00 1.935861e-01 0.000000e+00
1.469808e+00 1.749392e-01 0.000000e+00
1.538529e+00 1.935861e-01 0.000000e+00
1.482425e+00 1.174279e-01 0.000000e+00
1.552375e+00 1.298231e-01 0.000000e+00
1.482425e+00 1.174279e-01 0.000000e+00
1.552375e+00 1.298231e-01 0.000000e+00
1.490000e+00 5.895245e-02 0.000000e+00
1.560671e+00 6.513884e-02 0.000000e+00
1.490000e+00 5.895245e-02 0.000000e+00
1.560671e+00 6.513884e-02 0.000000e+00
1.492526e+00 7.308280e-12 0.000000e+00
1.563434e+00 7.655500e-12 0.000000e+00
</DataArray>
</Points>
<Cells>
<DataArray type="Int32" Name="connectivity" format="ascii">
0 1 3 2
4 5 7 6
8 9 11 10
12 13 15 14
16 17 19 18
20 21 23 22
24 25 27 26
28 29 31 30
32 33 35 34
36 37 39 38
40 41 43 42
44 45 47 46
48 49 51 50
52 53 55 54
56 57 59 58
60 61 63 62
64 65 67 66
68 69 71 70
72 73 75 74
76 77 79 78
80 81 83 82
84 85 87 86
88 89 91 90
92 93 95 94
96 97 99 98
100 101 103 102
104 105 107 106
108 109 111 110
112 113 115 114
116 117 119 118
</DataArray>
<DataArray type="Int32" Name="offsets" format="ascii">
4
8
12
16
20
24
28
32
36
40
44
48
52
56
60
64
68
72
76
80
84
88
92
96
100
104
108
112
116
120
</DataArray>
<DataArray type="UInt8" Name="types" format="ascii">
9
9
9
9
9
9
9
9
9
9
9
9
9
9
9
9
9
9
9
9
9
9
9
9
9
9
9
9
9
9
</DataArray>
</Cells>
<PointData>
<DataArray type="Float32" Name="V1" format="ascii">
3.203014e+01
-4.394071e-01
3.206992e+01
-3.996209e-01
3.213230e+01
-4.404377e-01
3.224173e+01
-3.310002e-01
3.236902e+01
-4.143928e-01
3.255449e+01
-2.289197e-01
3.274583e+01
-3.560488e-01
3.300929e+01
-9.258241e-02
3.326659e+01
-2.646199e-01
3.361105e+01
7.984096e-02
3.393644e+01
-1.385247e-01
3.436605e+01
2.910762e-01
3.476147e+01
2.494355e-02
3.528167e+01
5.451467e-01
3.574785e+01
2.303517e-01
3.636575e+01
8.482529e-01
3.690025e+01
4.855950e-01
3.762513e+01
1.210473e+00
3.821826e+01
8.047958e-01
3.906258e+01
1.649111e+00
3.968926e+01
1.214113e+00
4.067048e+01
2.195335e+00
4.127414e+01
1.763464e+00
4.241802e+01
2.907346e+00
4.287957e+01
2.550626e+00
4.422561e+01
3.896663e+00
4.430583e+01
3.771911e+00
4.591519e+01
5.381271e+00
4.515308e+01
5.829715e+00
4.712976e+01
7.806394e+00
4.462695e+01
9.659305e+00
4.725574e+01
1.228810e+01
4.184626e+01
1.769369e+01
4.559333e+01
2.144076e+01
4.211245e+01
2.349688e+01
4.448583e+01
2.587026e+01
4.369143e+01
2.643947e+01
4.597606e+01
2.872411e+01
4.623070e+01
2.854015e+01
4.844378e+01
3.075323e+01
4.923948e+01
3.012842e+01
5.132666e+01
3.221560e+01
5.235383e+01
3.139267e+01
5.426248e+01
3.330132e+01
5.535162e+01
3.242811e+01
5.704980e+01
3.412629e+01
5.809999e+01
3.328946e+01
5.957156e+01
3.476103e+01
6.052353e+01
3.400885e+01
6.176275e+01
3.524807e+01
6.258217e+01
3.460607e+01
6.358914e+01
3.561304e+01
6.425688e+01
3.509378e+01
6.503448e+01
3.587138e+01
6.554038e+01
3.548033e+01
6.609235e+01
3.603230e+01
6.643138e+01
3.577136e+01
6.676105e+01
3.610104e+01
6.693098e+01
3.597060e+01
6.704061e+01
3.608022e+01
</DataArray>
<DataArray type="Float32" Name="V2" format="ascii">
5.553529e-01
6.400000e-01
5.580192e-01
6.424993e-01
5.580192e-01
6.424993e-01
5.659653e-01
6.499807e-01
5.659653e-01
6.499807e-01
5.791507e-01
6.623948e-01
5.791507e-01
6.623948e-01
5.974872e-01
6.796593e-01
5.974872e-01
6.796593e-01
6.208524e-01
7.016598e-01
6.208524e-01
7.016598e-01
6.490896e-01
7.282499e-01
6.490896e-01
7.282499e-01
6.820080e-01
7.592527e-01
6.820080e-01
7.592527e-01
7.193836e-01
7.944619e-01
7.193836e-01
7.944619e-01
7.609587e-01
8.336449e-01
7.609587e-01
8.336449e-01
8.064415e-01
8.765475e-01
8.064415e-01
8.765475e-01
8.555029e-01
9.229027e-01
8.555029e-01
9.229027e-01
9.077691e-01
9.724461e-01
9.077691e-01
9.724461e-01
9.628030e-01
1.024943e+00
9.628030e-01
1.024943e+00
1.020058e+00
1.080226e+00
1.020058e+00
1.080226e+00
1.078752e+00
1.138218e+00
1.078752e+00
1.138218e+00
1.137670e+00
1.198668e+00
1.137670e+00
1.198668e+00
1.195176e+00
1.257231e+00
1.195176e+00
1.257231e+00
1.245601e+00
1.308584e+00
1.245601e+00
1.308584e+00
1.289962e+00
1.354652e+00
1.289962e+00
1.354652e+00
1.328706e+00
1.395101e+00
1.328706e+00
1.395101e+00
1.362400e+00
1.430204e+00
1.362400e+00
1.430204e+00
1.391482e+00
1.460346e+00
1.391482e+00
1.460346e+00
1.416334e+00
1.485949e+00
1.416334e+00
1.485949e+00
1.437277e+00
1.507402e+00
1.437277e+00
1.507402e+00
1.454578e+00
1.525035e+00
1.454578e+00
1.525035e+00
1.468455e+00
1.539121e+00
1.468455e+00
1.539121e+00
1.479079e+00
1.549871e+00
1.479079e+00
1.549871e+00
1.486579e+00
1.557441e+00
1.486579e+00
1.557441e+00
1.491043e+00
1.561941e+00
1.491043e+00
1.561941e+00
1.492526e+00
1.563434e+00
</DataArray>
<DataArray type="Float32" Name="V3" format="ascii">
0.000000e+00
0.000000e+00
3.543768e-02
3.093071e-02
3.543768e-02
3.093071e-02
7.041029e-02
6.141917e-02
7.041029e-02
6.141917e-02
1.044522e-01
9.102603e-02
1.044522e-01
9.102603e-02
1.371041e-01
1.193158e-01
1.371041e-01
1.193158e-01
1.679135e-01
1.458599e-01
1.679135e-01
1.458599e-01
1.964369e-01
1.702393e-01
1.964369e-01
1.702393e-01
2.222415e-01
1.920468e-01
2.222415e-01
1.920468e-01
2.449074e-01
2.108908e-01
2.449074e-01
2.108908e-01
2.640276e-01
2.263991e-01
2.640276e-01
2.263991e-01
2.792089e-01
2.382248e-01
2.792089e-01
2.382248e-01
2.900690e-01
2.460553e-01
2.900690e-01
2.460553e-01
2.962315e-01
2.496242e-01
2.962315e-01
2.496242e-01
2.973154e-01
2.487288e-01
2.973154e-01
2.487288e-01
2.929185e-01
2.432471e-01
2.929185e-01
2.432471e-01
2.826099e-01
2.331218e-01
2.826099e-01
2.331218e-01
2.660601e-01
2.180808e-01
2.660601e-01
2.180808e-01
2.450857e-01
1.982139e-01
2.450857e-01
1.982139e-01
2.251659e-01
1.817242e-01
2.251659e-01
1.817242e-01
2.057209e-01
1.668586e-01
2.057209e-01
1.668586e-01
1.868635e-01
1.528835e-01
1.868635e-01
1.528835e-01
1.683476e-01
1.391526e-01
1.683476e-01
1.391526e-01
1.499914e-01
1.252743e-01
1.499914e-01
1.252743e-01
1.316528e-01
1.110302e-01
1.316528e-01
1.110302e-01
1.132369e-01
9.632265e-02
1.132369e-01
9.632265e-02
9.468976e-02
8.113392e-02
9.468976e-02
8.113392e-02
7.599044e-02
6.549691e-02
7.599044e-02
6.549691e-02
5.714330e-02
4.947617e-02
5.714330e-02
4.947617e-02
3.817103e-02
3.315541e-02
3.817103e-02
3.315541e-02
1.910891e-02
1.662964e-02
1.910891e-02
1.662964e-02
0.000000e+00
0.000000e+00
</DataArray>
<DataArray type="Float32" Name="V4" format="ascii">
8.500000e-01
1.000000e+00
8.500000e-01
1.000000e+00
8.500000e-01
1.000000e+00
8.500000e-01
1.000000e+00
8.500000e-01
1.000000e+00
8.500000e-01
1.000000e+00
8.500000e-01
1.000000e+00
8.500000e-01
1.000000e+00
8.500000e-01
1.000000e+00
8.500000e-01
1.000000e+00
8.500000e-01
1.000000e+00
8.500000e-01
1.000000e+00
8.500000e-01
1.000000e+00
8.500000e-01
1.000000e+00
8.500000e-01
1.000000e+00
8.500000e-01
1.000000e+00
8.500000e-01
1.000000e+00
8.500000e-01
1.000000e+00
8.500000e-01
1.000000e+00
8.500000e-01
1.000000e+00
8.500000e-01
1.000000e+00
8.500000e-01
1.000000e+00
8.500000e-01
1.000000e+00
8.500000e-01
1.000000e+00
8.500000e-01
1.000000e+00
8.500000e-01
1.000000e+00
8.500000e-01
1.000000e+00
8.500000e-01
1.000000e+00
8.500000e-01
1.000000e+00
8.500000e-01
1.000000e+00
8.500000e-01
1.000000e+00
8.500000e-01
1.000000e+00
8.500000e-01
1.000000e+00
8.500000e-01
1.000000e+00
8.500000e-01
1.000000e+00
8.500000e-01
1.000000e+00
8.500000e-01
1.000000e+00
8.500000e-01
1.000000e+00
8.500000e-01
1.000000e+00
8.500000e-01
1.000000e+00
8.500000e-01
1.000000e+00
8.500000e-01
1.000000e+00
8.500000e-01
1.000000e+00
8.500000e-01
1.000000e+00
8.500000e-01
1.000000e+00
8.500000e-01
1.000000e+00
8.500000e-01
1.000000e+00
8.500000e-01
1.000000e+00
8.500000e-01
1.000000e+00
8.500000e-01
1.000000e+00
8.500000e-01
1.000000e+00
8.500000e-01
1.000000e+00
8.500000e-01
1.000000e+00
8.500000e-01
1.000000e+00
8.500000e-01
1.000000e+00
8.500000e-01
1.000000e+00
8.500000e-01
1.000000e+00
8.500000e-01
1.000000e+00
8.500000e-01
1.000000e+00
8.500000e-01
1.000000e+00
</DataArray>
<DataArray type="Float32" Name="V5" format="ascii">
0.000000e+00
0.000000e+00
5.235988e-02
5.235988e-02
5.235988e-02
5.235988e-02
1.047198e-01
1.047198e-01
1.047198e-01
1.047198e-01
1.570796e-01
1.570796e-01
1.570796e-01
1.570796e-01
2.094395e-01
2.094395e-01
2.094395e-01
2.094395e-01
2.617994e-01
2.617994e-01
2.617994e-01
2.617994e-01
3.141593e-01
3.141593e-01
3.141593e-01
3.141593e-01
3.665191e-01
3.665191e-01
3.665191e-01
3.665191e-01
4.188790e-01
4.188790e-01
4.188790e-01
4.188790e-01
4.712389e-01
4.712389e-01
4.712389e-01
4.712389e-01
5.235988e-01
5.235988e-01
5.235988e-01
5.235988e-01
5.759587e-01
5.759587e-01
5.759587e-01
5.759587e-01
6.283185e-01
6.283185e-01
6.283185e-01
6.283185e-01
6.806784e-01
6.806784e-01
6.806784e-01
6.806784e-01
7.330383e-01
7.330383e-01
7.330383e-01
7.330383e-01
7.853982e-01
7.853982e-01
7.853982e-01
7.853982e-01
8.377580e-01
8.377580e-01
8.377580e-01
8.377580e-01
8.901179e-01
8.901179e-01
8.901179e-01
8.901179e-01
9.424778e-01
9.424778e-01
9.424778e-01
9.424778e-01
9.948377e-01
9.948377e-01
9.948377e-01
9.948377e-01
1.047198e+00
1.047198e+00
1.047198e+00
1.047198e+00
1.099557e+00
1.099557e+00
1.099557e+00
1.099557e+00
1.151917e+00
1.151917e+00
1.151917e+00
1.151917e+00
1.204277e+00
1.204277e+00
1.204277e+00
1.204277e+00
1.256637e+00
1.256637e+00
1.256637e+00
1.256637e+00
1.308997e+00
1.308997e+00
1.308997e+00
1.308997e+00
1.361357e+00
1.361357e+00
1.361357e+00
1.361357e+00
1.413717e+00
1.413717e+00
1.413717e+00
1.413717e+00
1.466077e+00
1.466077e+00
1.466077e+00
1.466077e+00
1.518436e+00
1.518436e+00
1.518436e+00
1.518436e+00
1.570796e+00
1.570796e+00
</DataArray>
</PointData>
</Piece></UnstructuredGrid>
</VTKFile>
