<?xml version="1.0"?>
<VTKFile type="UnstructuredGrid" version="0.1" byte_order="LittleEndian" compressor="vtkZLibDataCompressor">
<UnstructuredGrid>
<Piece NumberOfPoints="120" NumberOfCells="30">
<Points>
<DataArray type="Float32" NumberOfComponents="3" format="ascii">
0.000000e+00 9.737180e-01 0.000000e+00
0.000000e+00 1.080000e+00 0.000000e+00
5.660636e-02 9.738101e-01 0.000000e+00
5.861896e-02 1.080000e+00 0.000000e+00
5.660636e-02 9.738101e-01 0.000000e+00
5.861896e-02 1.080000e+00 0.000000e+00
1.128037e-01 9.738841e-01 0.000000e+00
1.175362e-01 1.080000e+00 0.000000e+00
1.128037e-01 9.738841e-01 0.000000e+00
1.175362e-01 1.080000e+00 0.000000e+00
1.681221e-01 9.734656e-01 0.000000e+00
1.768596e-01 1.080000e+00 0.000000e+00
1.681221e-01 9.734656e-01 0.000000e+00
1.768596e-01 1.080000e+00 0.000000e+00
2.227426e-01 9.718476e-01 0.000000e+00
2.358906e-01 1.079367e+00 0.000000e+00
2.227426e-01 9.718476e-01 0.000000e+00
2.358906e-01 1.079367e+00 0.000000e+00
2.765055e-01 9.664544e-01 0.000000e+00
2.945582e-01 1.073183e+00 0.000000e+00
2.765055e-01 9.664544e-01 0.000000e+00
2.945582e-01 1.073183e+00 0.000000e+00
3.291495e-01 9.574546e-01 0.000000e+00
3.531764e-01 1.062560e+00 0.000000e+00
3.291495e-01 9.574546e-01 0.000000e+00
3.531764e-01 1.062560e+00 0.000000e+00
3.809245e-01 9.447260e-01 0.000000e+00
4.112270e-01 1.047828e+00 0.000000e+00
3.809245e-01 9.447260e-01 0.000000e+00
4.112270e-01 1.047828e+00 0.000000e+00
4.317673e-01 9.284851e-01 0.000000e+00
4.683036e-01 1.029231e+00 0.000000e+00
4.317673e-01 9.284851e-01 0.000000e+00
4.683036e-01 1.029231e+00 0.000000e+00
4.815429e-01 9.089162e-01 0.000000e+00
5.241150e-01 1.006990e+00 0.000000e+00
4.815429e-01 9.089162e-01 0.000000e+00
5.241150e-01 1.006990e+00 0.000000e+00
5.300975e-01 8.861946e-01 0.000000e+00
5.784455e-01 9.813129e-01 0.000000e+00
5.300975e-01 8.861946e-01 0.000000e+00
5.784455e-01 9.813129e-01 0.000000e+00
5.772764e-01 8.604851e-01 0.000000e+00
6.311191e-01 9.523921e-01 0.000000e+00
5.772764e-01 8.604851e-01 0.000000e+00
6.311191e-01 9.523921e-01 0.000000e+00
6.229299e-01 8.319448e-01 0.000000e+00
6.819830e-01 9.204050e-01 0.000000e+00
6.229299e-01 8.319448e-01 0.000000e+00
6.819830e-01 9.204050e-01 0.000000e+00
6.669162e-01 8.007245e-01 0.000000e+00
7.308983e-01 8.855185e-01 0.000000e+00
6.669162e-01 8.007245e-01 0.000000e+00
7.308983e-01 8.855185e-01 0.000000e+00
7.091014e-01 7.669707e-01 0.000000e+00
7.777359e-01 8.478923e-01 0.000000e+00
7.091014e-01 7.669707e-01 0.000000e+00
7.777359e-01 8.478923e-01 0.000000e+00
7.493603e-01 7.308268e-01 0.000000e+00
8.223742e-01 8.076812e-01 0.000000e+00
7.493603e-01 7.308268e-01 0.000000e+00
8.223742e-01 8.076812e-01 0.000000e+00
7.875754e-01 6.924348e-01 0.000000e+00
8.646984e-01 7.650380e-01 0.000000e+00
7.875754e-01 6.924348e-01 0.000000e+00
8.646984e-01 7.650380e-01 0.000000e+00
8.236369e-01 6.519361e-01 0.000000e+00
9.045994e-01 7.201141e-01 0.000000e+00
8.236369e-01 6.519361e-01 0.000000e+00
9.045994e-01 7.201141e-01 0.000000e+00
8.574424e-01 6.094721e-01 0.000000e+00
9.419749e-01 6.730617e-01 0.000000e+00
8.574424e-01 6.094721e-01 0.000000e+00
9.419749e-01 6.730617e-01 0.000000e+00
8.888973e-01 5.651855e-01 0.000000e+00
9.767284e-01 6.240338e-01 0.000000e+00
8.888973e-01 5.651855e-01 0.000000e+00
9.767284e-01 6.240338e-01 0.000000e+00
9.179139e-01 5.192200e-01 0.000000e+00
1.008770e+00 5.731850e-01 0.000000e+00
9.179139e-01 5.192200e-01 0.000000e+00
1.008770e+00 5.731850e-01 0.000000e+00
9.444119e-01 4.717208e-01 0.000000e+00
1.038018e+00 5.206719e-01 0.000000e+00
9.444119e-01 4.717208e-01 0.000000e+00
1.038018e+00 5.206719e-01 0.000000e+00
9.683184e-01 4.228349e-01 0.000000e+00
1.064395e+00 4.666533e-01 0.000000e+00
9.683184e-01 4.228349e-01 0.000000e+00
1.064395e+00 4.666533e-01 0.000000e+00
9.895681e-01 3.727111e-01 0.000000e+00
1.087833e+00 4.112901e-01 0.000000e+00
9.895681e-01 3.727111e-01 0.000000e+00
1.087833e+00 4.112901e-01 0.000000e+00
1.008103e+00 3.214998e-01 0.000000e+00
1.108271e+00 3.547451e-01 0.000000e+00
1.008103e+00 3.214998e-01 0.000000e+00
1.108271e+00 3.547451e-01 0.000000e+00
1.023872e+00 2.693530e-01 0.000000e+00
1.125656e+00 2.971832e-01 0.000000e+00
1.023872e+00 2.693530e-01 0.000000e+00
1.125656e+00 2.971832e-01 0.000000e+00
1.036833e+00 2.164243e-01 0.000000e+00
1.139943e+00 2.387711e-01 0.000000e+00
1.036833e+00 2.164243e-01 0.000000e+00
1.139943e+00 2.387711e-01 0.000000e+00
1.046950e+00 1.628684e-01 0.000000e+00
1.151093e+00 1.796768e-01 0.000000e+00
1.046950e+00 1.628684e-01 0.000000e+00
1.151093e+00 1.796768e-01 0.000000e+00
1.054196e+00 1.088412e-01 0.000000e+00
1.159079e+00 1.200699e-01 0.000000e+00
1.054196e+00 1.088412e-01 0.000000e+00
1.159079e+00 1.200699e-01 0.000000e+00
1.058552e+00 5.449934e-02 0.000000e+00
1.163879e+00 6.012062e-02 0.000000e+00
1.058552e+00 5.449934e-02 0.000000e+00
1.163879e+00 6.012062e-02 0.000000e+00
1.060005e+00 5.190410e-12 0.000000e+00
1.165480e+00 5.706880e-12 0.000000e+00
</DataArray>
</Points>
<Cells>
<DataArray type="Int32" Name="connectivity" format="ascii">
0 1 3 2
4 5 7 6
8 9 11 10
12 13 15 14
16 17 19 18
20 21 23 22
24 25 27 26
28 29 31 30
32 33 35 34
36 37 39 38
40 41 43 42
44 45 47 46
48 49 51 50
52 53 55 54
56 57 59 58
60 61 63 62
64 65 67 66
68 69 71 70
72 73 75 74
76 77 79 78
80 81 83 82
84 85 87 86
88 89 91 90
92 93 95 94
96 97 99 98
100 101 103 102
104 105 107 106
108 109 111 110
112 113 115 114
116 117 119 118
</DataArray>
<DataArray type="Int32" Name="offsets" format="ascii">
4
8
12
16
20
24
28
32
36
40
44
48
52
56
60
64
68
72
76
80
84
88
92
96
100
104
108
112
116
120
</DataArray>
<DataArray type="UInt8" Name="types" format="ascii">
9
9
9
9
9
9
9
9
9
9
9
9
9
9
9
9
9
9
9
9
9
9
9
9
9
9
9
9
9
9
</DataArray>
</Cells>
<PointData>
<DataArray type="Float32" Name="V1" format="ascii">
1.335953e+01
1.292447e+00
1.342270e+01
1.355617e+00
1.299416e+01
1.644094e+00
1.315097e+01
1.800903e+00
1.217311e+01
2.510965e+00
1.258578e+01
2.923636e+00
1.080039e+01
4.449684e+00
1.154616e+01
5.195463e+00
1.007684e+01
6.411189e+00
1.036545e+01
6.699798e+00
9.793198e+00
7.094371e+00
9.936493e+00
7.237666e+00
9.672864e+00
7.448454e+00
9.795034e+00
7.570623e+00
9.681741e+00
7.663558e+00
9.788507e+00
7.770324e+00
9.749530e+00
7.802390e+00
9.841968e+00
7.894828e+00
9.840776e+00
7.895925e+00
9.920507e+00
7.975655e+00
9.937531e+00
7.961890e+00
1.000624e+01
8.030597e+00
1.003114e+01
8.010481e+00
1.009039e+01
8.069734e+00
1.011771e+01
8.047714e+00
1.016889e+01
8.098888e+00
1.019586e+01
8.077213e+00
1.024013e+01
8.121483e+00
1.026541e+01
8.101221e+00
1.030376e+01
8.139575e+00
1.032679e+01
8.121164e+00
1.036005e+01
8.154427e+00
1.038066e+01
8.137979e+00
1.040952e+01
8.166840e+00
1.042777e+01
8.152305e+00
1.045280e+01
8.177338e+00
1.046883e+01
8.164591e+00
1.049051e+01
8.186277e+00
1.050450e+01
8.175169e+00
1.052324e+01
8.193907e+00
1.053536e+01
8.184285e+00
1.055149e+01
8.200411e+00
1.056193e+01
8.192133e+00
1.057572e+01
8.205925e+00
1.058464e+01
8.198864e+00
1.059633e+01
8.210557e+00
1.060385e+01
8.204602e+00
1.061364e+01
8.214387e+00
1.061988e+01
8.209445e+00
1.062792e+01
8.217479e+00
1.063298e+01
8.213473e+00
1.063939e+01
8.219884e+00
1.064336e+01
8.216750e+00
1.064825e+01
8.221638e+00
1.065117e+01
8.219329e+00
1.065461e+01
8.222768e+00
1.065653e+01
8.221248e+00
1.065857e+01
8.223291e+00
1.065953e+01
8.222536e+00
1.066020e+01
8.223214e+00
</DataArray>
<DataArray type="Float32" Name="V2" format="ascii">
9.737180e-01
1.080000e+00
9.754380e-01
1.081588e+00
9.754380e-01
1.081588e+00
9.803402e-01
1.086370e+00
9.803402e-01
1.086370e+00
9.877808e-01
1.094370e+00
9.877808e-01
1.094370e+00
9.969212e-01
1.104825e+00
9.969212e-01
1.104825e+00
1.005088e+00
1.112852e+00
1.005088e+00
1.112852e+00
1.012306e+00
1.119692e+00
1.012306e+00
1.119692e+00
1.018489e+00
1.125602e+00
1.018489e+00
1.125602e+00
1.023829e+00
1.130725e+00
1.023829e+00
1.130725e+00
1.028466e+00
1.135178e+00
1.028466e+00
1.135178e+00
1.032516e+00
1.139065e+00
1.032516e+00
1.139065e+00
1.036071e+00
1.142475e+00
1.036071e+00
1.142475e+00
1.039206e+00
1.145483e+00
1.039206e+00
1.145483e+00
1.041984e+00
1.148146e+00
1.041984e+00
1.148146e+00
1.044452e+00
1.150514e+00
1.044452e+00
1.150514e+00
1.046650e+00
1.152623e+00
1.046650e+00
1.152623e+00
1.048612e+00
1.154506e+00
1.048612e+00
1.154506e+00
1.050363e+00
1.156188e+00
1.050363e+00
1.156188e+00
1.051924e+00
1.157689e+00
1.051924e+00
1.157689e+00
1.053314e+00
1.159027e+00
1.053314e+00
1.159027e+00
1.054547e+00
1.160213e+00
1.054547e+00
1.160213e+00
1.055634e+00
1.161261e+00
1.055634e+00
1.161261e+00
1.056585e+00
1.162178e+00
1.056585e+00
1.162178e+00
1.057409e+00
1.162973e+00
1.057409e+00
1.162973e+00
1.058112e+00
1.163651e+00
1.058112e+00
1.163651e+00
1.058698e+00
1.164217e+00
1.058698e+00
1.164217e+00
1.059172e+00
1.164675e+00
1.059172e+00
1.164675e+00
1.059538e+00
1.165029e+00
1.059538e+00
1.165029e+00
1.059798e+00
1.165280e+00
1.059798e+00
1.165280e+00
1.059953e+00
1.165430e+00
1.059953e+00
1.165430e+00
1.060005e+00
1.165480e+00
</DataArray>
<DataArray type="Float32" Name="V3" format="ascii">
0.000000e+00
0.000000e+00
5.563498e-03
2.015788e-03
5.563498e-03
2.015788e-03
1.038712e-02
4.001605e-03
1.038712e-02
4.001605e-03
1.376869e-02
5.732958e-03
1.376869e-02
5.732958e-03
1.581669e-02
6.322743e-03
1.581669e-02
6.322743e-03
1.694703e-02
6.761247e-03
1.694703e-02
6.761247e-03
1.717006e-02
7.541704e-03
1.717006e-02
7.541704e-03
1.706411e-02
8.405692e-03
1.706411e-02
8.405692e-03
1.679015e-02
9.190725e-03
1.679015e-02
9.190725e-03
1.641849e-02
9.826140e-03
1.641849e-02
9.826140e-03
1.598063e-02
1.029206e-02
1.598063e-02
1.029206e-02
1.549096e-02
1.059114e-02
1.549096e-02
1.059114e-02
1.495603e-02
1.073536e-02
1.495603e-02
1.073536e-02
1.437894e-02
1.073979e-02
1.437894e-02
1.073979e-02
1.376151e-02
1.061973e-02
1.376151e-02
1.061973e-02
1.310518e-02
1.038953e-02
1.310518e-02
1.038953e-02
1.241145e-02
1.006213e-02
1.241145e-02
1.006213e-02
1.168199e-02
9.649076e-03
1.168199e-02
9.649076e-03
1.091871e-02
9.160564e-03
1.091871e-02
9.160564e-03
1.012370e-02
8.605645e-03
1.012370e-02
8.605645e-03
9.299250e-03
7.992393e-03
9.299250e-03
7.992393e-03
8.447747e-03
7.328065e-03
8.447747e-03
7.328065e-03
7.571706e-03
6.619254e-03
7.571706e-03
6.619254e-03
6.673714e-03
5.872005e-03
6.673714e-03
5.872005e-03
5.756420e-03
5.091926e-03
5.756420e-03
5.091926e-03
4.822516e-03
4.284272e-03
4.822516e-03
4.284272e-03
3.874728e-03
3.454018e-03
3.874728e-03
3.454018e-03
2.915808e-03
2.605923e-03
2.915808e-03
2.605923e-03
1.948525e-03
1.744582e-03
1.948525e-03
1.744582e-03
9.756588e-04
8.744736e-04
9.756588e-04
8.744736e-04
0.000000e+00
0.000000e+00
</DataArray>
<DataArray type="Float32" Name="V4" format="ascii">
8.500000e-01
1.000000e+00
8.500000e-01
1.000000e+00
8.500000e-01
1.000000e+00
8.500000e-01
1.000000e+00
8.500000e-01
1.000000e+00
8.500000e-01
1.000000e+00
8.500000e-01
1.000000e+00
8.500000e-01
1.000000e+00
8.500000e-01
1.000000e+00
8.500000e-01
1.000000e+00
8.500000e-01
1.000000e+00
8.500000e-01
1.000000e+00
8.500000e-01
1.000000e+00
8.500000e-01
1.000000e+00
8.500000e-01
1.000000e+00
8.500000e-01
1.000000e+00
8.500000e-01
1.000000e+00
8.500000e-01
1.000000e+00
8.500000e-01
1.000000e+00
8.500000e-01
1.000000e+00
8.500000e-01
1.000000e+00
8.500000e-01
1.000000e+00
8.500000e-01
1.000000e+00
8.500000e-01
1.000000e+00
8.500000e-01
1.000000e+00
8.500000e-01
1.000000e+00
8.500000e-01
1.000000e+00
8.500000e-01
1.000000e+00
8.500000e-01
1.000000e+00
8.500000e-01
1.000000e+00
8.500000e-01
1.000000e+00
8.500000e-01
1.000000e+00
8.500000e-01
1.000000e+00
8.500000e-01
1.000000e+00
8.500000e-01
1.000000e+00
8.500000e-01
1.000000e+00
8.500000e-01
1.000000e+00
8.500000e-01
1.000000e+00
8.500000e-01
1.000000e+00
8.500000e-01
1.000000e+00
8.500000e-01
1.000000e+00
8.500000e-01
1.000000e+00
8.500000e-01
1.000000e+00
8.500000e-01
1.000000e+00
8.500000e-01
1.000000e+00
8.500000e-01
1.000000e+00
8.500000e-01
1.000000e+00
8.500000e-01
1.000000e+00
8.500000e-01
1.000000e+00
8.500000e-01
1.000000e+00
8.500000e-01
1.000000e+00
8.500000e-01
1.000000e+00
8.500000e-01
1.000000e+00
8.500000e-01
1.000000e+00
8.500000e-01
1.000000e+00
8.500000e-01
1.000000e+00
8.500000e-01
1.000000e+00
8.500000e-01
1.000000e+00
8.500000e-01
1.000000e+00
8.500000e-01
1.000000e+00
</DataArray>
<DataArray type="Float32" Name="V5" format="ascii">
0.000000e+00
0.000000e+00
5.235988e-02
5.235988e-02
5.235988e-02
5.235988e-02
1.047198e-01
1.047198e-01
1.047198e-01
1.047198e-01
1.570796e-01
1.570796e-01
1.570796e-01
1.570796e-01
2.094395e-01
2.094395e-01
2.094395e-01
2.094395e-01
2.617994e-01
2.617994e-01
2.617994e-01
2.617994e-01
3.141593e-01
3.141593e-01
3.141593e-01
3.141593e-01
3.665191e-01
3.665191e-01
3.665191e-01
3.665191e-01
4.188790e-01
4.188790e-01
4.188790e-01
4.188790e-01
4.712389e-01
4.712389e-01
4.712389e-01
4.712389e-01
5.235988e-01
5.235988e-01
5.235988e-01
5.235988e-01
5.759587e-01
5.759587e-01
5.759587e-01
5.759587e-01
6.283185e-01
6.283185e-01
6.283185e-01
6.283185e-01
6.806784e-01
6.806784e-01
6.806784e-01
6.806784e-01
7.330383e-01
7.330383e-01
7.330383e-01
7.330383e-01
7.853982e-01
7.853982e-01
7.853982e-01
7.853982e-01
8.377580e-01
8.377580e-01
8.377580e-01
8.377580e-01
8.901179e-01
8.901179e-01
8.901179e-01
8.901179e-01
9.424778e-01
9.424778e-01
9.424778e-01
9.424778e-01
9.948377e-01
9.948377e-01
9.948377e-01
9.948377e-01
1.047198e+00
1.047198e+00
1.047198e+00
1.047198e+00
1.099557e+00
1.099557e+00
1.099557e+00
1.099557e+00
1.151917e+00
1.151917e+00
1.151917e+00
1.151917e+00
1.204277e+00
1.204277e+00
1.204277e+00
1.204277e+00
1.256637e+00
1.256637e+00
1.256637e+00
1.256637e+00
1.308997e+00
1.308997e+00
1.308997e+00
1.308997e+00
1.361357e+00
1.361357e+00
1.361357e+00
1.361357e+00
1.413717e+00
1.413717e+00
1.413717e+00
1.413717e+00
1.466077e+00
1.466077e+00
1.466077e+00
1.466077e+00
1.518436e+00
1.518436e+00
1.518436e+00
1.518436e+00
1.570796e+00
1.570796e+00
</DataArray>
</PointData>
</Piece></UnstructuredGrid>
</VTKFile>
