<?xml version="1.0"?>
<VTKFile type="UnstructuredGrid" version="0.1" byte_order="LittleEndian" compressor="vtkZLibDataCompressor">
<UnstructuredGrid>
<Piece NumberOfPoints="120" NumberOfCells="30">
<Points>
<DataArray type="Float32" NumberOfComponents="3" format="ascii">
0.000000e+00 6.886644e-01 0.000000e+00
0.000000e+00 7.900000e-01 0.000000e+00
5.905676e-02 6.887197e-01 0.000000e+00
5.895474e-02 7.900000e-01 0.000000e+00
5.905676e-02 6.887197e-01 0.000000e+00
5.895474e-02 7.900000e-01 0.000000e+00
1.181139e-01 6.888602e-01 0.000000e+00
1.179105e-01 7.900000e-01 0.000000e+00
1.181139e-01 6.888602e-01 0.000000e+00
1.179105e-01 7.900000e-01 0.000000e+00
1.771689e-01 6.890950e-01 0.000000e+00
1.768706e-01 7.900000e-01 0.000000e+00
1.771689e-01 6.890950e-01 0.000000e+00
1.768706e-01 7.900000e-01 0.000000e+00
2.362193e-01 6.894254e-01 0.000000e+00
2.358402e-01 7.900000e-01 0.000000e+00
2.362193e-01 6.894254e-01 0.000000e+00
2.358402e-01 7.900000e-01 0.000000e+00
2.952590e-01 6.898539e-01 0.000000e+00
2.948315e-01 7.900000e-01 0.000000e+00
2.952590e-01 6.898539e-01 0.000000e+00
2.948315e-01 7.900000e-01 0.000000e+00
3.542745e-01 6.903865e-01 0.000000e+00
3.538701e-01 7.900000e-01 0.000000e+00
3.542745e-01 6.903865e-01 0.000000e+00
3.538701e-01 7.900000e-01 0.000000e+00
4.132366e-01 6.910326e-01 0.000000e+00
4.130081e-01 7.900000e-01 0.000000e+00
4.132366e-01 6.910326e-01 0.000000e+00
4.130081e-01 7.900000e-01 0.000000e+00
4.720841e-01 6.918049e-01 0.000000e+00
4.723449e-01 7.900000e-01 0.000000e+00
4.720841e-01 6.918049e-01 0.000000e+00
4.723449e-01 7.900000e-01 0.000000e+00
5.306901e-01 6.927072e-01 0.000000e+00
5.320544e-01 7.900000e-01 0.000000e+00
5.306901e-01 6.927072e-01 0.000000e+00
5.320544e-01 7.900000e-01 0.000000e+00
5.888005e-01 6.936918e-01 0.000000e+00
5.923975e-01 7.900000e-01 0.000000e+00
5.888005e-01 6.936918e-01 0.000000e+00
5.923975e-01 7.900000e-01 0.000000e+00
6.459315e-01 6.944858e-01 0.000000e+00
6.536402e-01 7.900000e-01 0.000000e+00
6.459315e-01 6.944858e-01 0.000000e+00
6.536402e-01 7.900000e-01 0.000000e+00
7.015736e-01 6.945032e-01 0.000000e+00
7.154004e-01 7.900000e-01 0.000000e+00
7.015736e-01 6.945032e-01 0.000000e+00
7.154004e-01 7.900000e-01 0.000000e+00
7.562269e-01 6.910486e-01 0.000000e+00
7.759977e-01 7.856551e-01 0.000000e+00
7.562269e-01 6.910486e-01 0.000000e+00
7.759977e-01 7.856551e-01 0.000000e+00
8.086599e-01 6.809867e-01 0.000000e+00
8.359736e-01 7.723620e-01 0.000000e+00
8.086599e-01 6.809867e-01 0.000000e+00
8.359736e-01 7.723620e-01 0.000000e+00
8.591129e-01 6.649802e-01 0.000000e+00
8.946857e-01 7.522718e-01 0.000000e+00
8.591129e-01 6.649802e-01 0.000000e+00
8.946857e-01 7.522718e-01 0.000000e+00
9.074248e-01 6.432450e-01 0.000000e+00
9.509899e-01 7.257460e-01 0.000000e+00
9.074248e-01 6.432450e-01 0.000000e+00
9.509899e-01 7.257460e-01 0.000000e+00
9.533365e-01 6.163514e-01 0.000000e+00
1.004228e+00 6.935274e-01 0.000000e+00
9.533365e-01 6.163514e-01 0.000000e+00
1.004228e+00 6.935274e-01 0.000000e+00
9.965846e-01 5.848184e-01 0.000000e+00
1.053991e+00 6.563220e-01 0.000000e+00
9.965846e-01 5.848184e-01 0.000000e+00
1.053991e+00 6.563220e-01 0.000000e+00
1.036943e+00 5.491561e-01 0.000000e+00
1.100047e+00 6.147827e-01 0.000000e+00
1.036943e+00 5.491561e-01 0.000000e+00
1.100047e+00 6.147827e-01 0.000000e+00
1.074224e+00 5.098433e-01 0.000000e+00
1.142261e+00 5.694872e-01 0.000000e+00
1.074224e+00 5.098433e-01 0.000000e+00
1.142261e+00 5.694872e-01 0.000000e+00
1.108280e+00 4.673250e-01 0.000000e+00
1.180556e+00 5.209431e-01 0.000000e+00
1.108280e+00 4.673250e-01 0.000000e+00
1.180556e+00 5.209431e-01 0.000000e+00
1.138992e+00 4.220125e-01 0.000000e+00
1.214885e+00 4.695984e-01 0.000000e+00
1.138992e+00 4.220125e-01 0.000000e+00
1.214885e+00 4.695984e-01 0.000000e+00
1.166267e+00 3.742860e-01 0.000000e+00
1.245219e+00 4.158530e-01 0.000000e+00
1.166267e+00 3.742860e-01 0.000000e+00
1.245219e+00 4.158530e-01 0.000000e+00
1.190031e+00 3.244992e-01 0.000000e+00
1.271540e+00 3.600694e-01 0.000000e+00
1.190031e+00 3.244992e-01 0.000000e+00
1.271540e+00 3.600694e-01 0.000000e+00
1.210226e+00 2.729834e-01 0.000000e+00
1.293834e+00 3.025811e-01 0.000000e+00
1.210226e+00 2.729834e-01 0.000000e+00
1.293834e+00 3.025811e-01 0.000000e+00
1.226806e+00 2.200516e-01 0.000000e+00
1.312089e+00 2.436999e-01 0.000000e+00
1.226806e+00 2.200516e-01 0.000000e+00
1.312089e+00 2.436999e-01 0.000000e+00
1.239736e+00 1.660028e-01 0.000000e+00
1.326297e+00 1.837213e-01 0.000000e+00
1.239736e+00 1.660028e-01 0.000000e+00
1.326297e+00 1.837213e-01 0.000000e+00
1.248990e+00 1.111251e-01 0.000000e+00
1.336451e+00 1.229289e-01 0.000000e+00
1.248990e+00 1.111251e-01 0.000000e+00
1.336451e+00 1.229289e-01 0.000000e+00
1.254550e+00 5.569907e-02 0.000000e+00
1.342545e+00 6.159841e-02 0.000000e+00
1.254550e+00 5.569907e-02 0.000000e+00
1.342545e+00 6.159841e-02 0.000000e+00
1.256404e+00 6.152090e-12 0.000000e+00
1.344577e+00 6.583840e-12 0.000000e+00
</DataArray>
</Points>
<Cells>
<DataArray type="Int32" Name="connectivity" format="ascii">
0 1 3 2
4 5 7 6
8 9 11 10
12 13 15 14
16 17 19 18
20 21 23 22
24 25 27 26
28 29 31 30
32 33 35 34
36 37 39 38
40 41 43 42
44 45 47 46
48 49 51 50
52 53 55 54
56 57 59 58
60 61 63 62
64 65 67 66
68 69 71 70
72 73 75 74
76 77 79 78
80 81 83 82
84 85 87 86
88 89 91 90
92 93 95 94
96 97 99 98
100 101 103 102
104 105 107 106
108 109 111 110
112 113 115 114
116 117 119 118
</DataArray>
<DataArray type="Int32" Name="offsets" format="ascii">
4
8
12
16
20
24
28
32
36
40
44
48
52
56
60
64
68
72
76
80
84
88
92
96
100
104
108
112
116
120
</DataArray>
<DataArray type="UInt8" Name="types" format="ascii">
9
9
9
9
9
9
9
9
9
9
9
9
9
9
9
9
9
9
9
9
9
9
9
9
9
9
9
9
9
9
</DataArray>
</Cells>
<PointData>
<DataArray type="Float32" Name="V1" format="ascii">
1.642270e+01
-3.024361e-01
1.644691e+01
-2.782270e-01
1.647591e+01
-2.988488e-01
1.653985e+01
-2.349019e-01
1.659982e+01
-2.762795e-01
1.670777e+01
-1.683322e-01
1.679670e+01
-2.306196e-01
1.694948e+01
-7.783547e-02
1.706548e+01
-1.598144e-01
1.726435e+01
3.906016e-02
1.740141e+01
-5.879563e-02
1.764834e+01
1.881379e-01
1.779085e+01
8.433594e-02
1.808932e+01
3.828049e-01
1.820087e+01
2.966173e-01
1.855806e+01
6.538053e-01
1.855988e+01
6.378185e-01
1.899217e+01
1.070113e+00
1.872523e+01
1.237074e+00
1.927170e+01
1.783545e+00
1.843919e+01
2.359250e+00
1.921360e+01
3.133666e+00
1.725520e+01
4.664405e+00
1.853628e+01
5.945486e+00
1.556784e+01
8.821803e+00
1.695255e+01
1.020651e+01
1.540027e+01
1.113689e+01
1.611799e+01
1.185461e+01
1.565656e+01
1.224084e+01
1.637201e+01
1.295628e+01
1.629936e+01
1.302373e+01
1.699295e+01
1.371732e+01
1.714447e+01
1.359477e+01
1.779782e+01
1.424811e+01
1.805656e+01
1.403364e+01
1.865674e+01
1.463382e+01
1.896083e+01
1.438260e+01
1.950229e+01
1.492405e+01
1.981508e+01
1.466789e+01
2.029668e+01
1.514949e+01
2.059746e+01
1.490564e+01
2.102065e+01
1.532883e+01
2.129804e+01
1.510614e+01
2.166555e+01
1.547365e+01
2.191374e+01
1.527617e+01
2.222879e+01
1.559122e+01
2.244521e+01
1.542034e+01
2.271103e+01
1.568616e+01
2.289496e+01
1.554189e+01
2.311456e+01
1.576149e+01
2.326621e+01
1.564317e+01
2.344222e+01
1.581918e+01
2.356226e+01
1.572592e+01
2.369687e+01
1.586053e+01
2.378605e+01
1.579146e+01
2.388097e+01
1.588639e+01
2.394000e+01
1.584078e+01
2.399646e+01
1.589724e+01
2.402584e+01
1.587457e+01
2.404458e+01
1.589331e+01
</DataArray>
<DataArray type="Float32" Name="V2" format="ascii">
6.886644e-01
7.900000e-01
6.908667e-01
7.920028e-01
6.908667e-01
7.920028e-01
6.974328e-01
7.979973e-01
6.974328e-01
7.979973e-01
7.083265e-01
8.079424e-01
7.083265e-01
8.079424e-01
7.234725e-01
8.217705e-01
7.234725e-01
8.217705e-01
7.427664e-01
8.393894e-01
7.427664e-01
8.393894e-01
7.660734e-01
8.606865e-01
7.660734e-01
8.606865e-01
7.932253e-01
8.855374e-01
7.932253e-01
8.855374e-01
8.240091e-01
9.138209e-01
8.240091e-01
9.138209e-01
8.581349e-01
9.454428e-01
8.581349e-01
9.454428e-01
8.951549e-01
9.803588e-01
8.951549e-01
9.803588e-01
9.342443e-01
1.018548e+00
9.342443e-01
1.018548e+00
9.742394e-01
1.059625e+00
9.742394e-01
1.059625e+00
1.012955e+00
1.098920e+00
1.012955e+00
1.098920e+00
1.047171e+00
1.133352e+00
1.047171e+00
1.133352e+00
1.077697e+00
1.164575e+00
1.077697e+00
1.164575e+00
1.104763e+00
1.192342e+00
1.104763e+00
1.192342e+00
1.128764e+00
1.216882e+00
1.128764e+00
1.216882e+00
1.150002e+00
1.238473e+00
1.150002e+00
1.238473e+00
1.168745e+00
1.257412e+00
1.168745e+00
1.257412e+00
1.185227e+00
1.273971e+00
1.185227e+00
1.273971e+00
1.199646e+00
1.288386e+00
1.199646e+00
1.288386e+00
1.212169e+00
1.300855e+00
1.212169e+00
1.300855e+00
1.222936e+00
1.311541e+00
1.222936e+00
1.311541e+00
1.232062e+00
1.320574e+00
1.232062e+00
1.320574e+00
1.239642e+00
1.328062e+00
1.239642e+00
1.328062e+00
1.245749e+00
1.334085e+00
1.245749e+00
1.334085e+00
1.250442e+00
1.338709e+00
1.250442e+00
1.338709e+00
1.253764e+00
1.341979e+00
1.253764e+00
1.341979e+00
1.255745e+00
1.343929e+00
1.255745e+00
1.343929e+00
1.256404e+00
1.344577e+00
</DataArray>
<DataArray type="Float32" Name="V3" format="ascii">
0.000000e+00
0.000000e+00
2.293102e-02
1.752854e-02
2.293102e-02
1.752854e-02
4.546136e-02
3.468709e-02
4.546136e-02
3.468709e-02
6.718947e-02
5.110978e-02
6.718947e-02
5.110978e-02
8.771779e-02
6.643631e-02
8.771779e-02
6.643631e-02
1.066510e-01
8.031832e-02
1.066510e-01
8.031832e-02
1.235939e-01
9.242705e-02
1.235939e-01
9.242705e-02
1.381456e-01
1.024656e-01
1.381456e-01
1.024656e-01
1.498879e-01
1.101866e-01
1.498879e-01
1.101866e-01
1.583658e-01
1.154114e-01
1.583658e-01
1.154114e-01
1.630703e-01
1.180313e-01
1.630703e-01
1.180313e-01
1.634796e-01
1.179240e-01
1.634796e-01
1.179240e-01
1.593662e-01
1.144207e-01
1.593662e-01
1.144207e-01
1.528077e-01
1.086347e-01
1.528077e-01
1.086347e-01
1.452824e-01
1.044384e-01
1.452824e-01
1.044384e-01
1.372726e-01
1.007018e-01
1.372726e-01
1.007018e-01
1.291615e-01
9.700208e-02
1.291615e-01
9.700208e-02
1.209591e-01
9.300886e-02
1.209591e-01
9.300886e-02
1.126497e-01
8.854474e-02
1.126497e-01
8.854474e-02
1.041984e-01
8.352846e-02
1.041984e-01
8.352846e-02
9.557484e-02
7.794023e-02
9.557484e-02
7.794023e-02
8.675894e-02
7.179735e-02
8.675894e-02
7.179735e-02
7.774218e-02
6.513859e-02
7.774218e-02
6.513859e-02
6.852654e-02
5.801444e-02
6.852654e-02
5.801444e-02
5.912265e-02
5.048128e-02
5.912265e-02
5.048128e-02
4.954783e-02
4.259803e-02
4.954783e-02
4.259803e-02
3.982443e-02
3.442425e-02
3.982443e-02
3.442425e-02
2.997849e-02
2.601922e-02
2.997849e-02
2.601922e-02
2.003865e-02
1.744160e-02
2.003865e-02
1.744160e-02
1.003533e-02
8.749381e-03
1.003533e-02
8.749381e-03
0.000000e+00
0.000000e+00
</DataArray>
<DataArray type="Float32" Name="V4" format="ascii">
8.500000e-01
1.000000e+00
8.500000e-01
1.000000e+00
8.500000e-01
1.000000e+00
8.500000e-01
1.000000e+00
8.500000e-01
1.000000e+00
8.500000e-01
1.000000e+00
8.500000e-01
1.000000e+00
8.500000e-01
1.000000e+00
8.500000e-01
1.000000e+00
8.500000e-01
1.000000e+00
8.500000e-01
1.000000e+00
8.500000e-01
1.000000e+00
8.500000e-01
1.000000e+00
8.500000e-01
1.000000e+00
8.500000e-01
1.000000e+00
8.500000e-01
1.000000e+00
8.500000e-01
1.000000e+00
8.500000e-01
1.000000e+00
8.500000e-01
1.000000e+00
8.500000e-01
1.000000e+00
8.500000e-01
1.000000e+00
8.500000e-01
1.000000e+00
8.500000e-01
1.000000e+00
8.500000e-01
1.000000e+00
8.500000e-01
1.000000e+00
8.500000e-01
1.000000e+00
8.500000e-01
1.000000e+00
8.500000e-01
1.000000e+00
8.500000e-01
1.000000e+00
8.500000e-01
1.000000e+00
8.500000e-01
1.000000e+00
8.500000e-01
1.000000e+00
8.500000e-01
1.000000e+00
8.500000e-01
1.000000e+00
8.500000e-01
1.000000e+00
8.500000e-01
1.000000e+00
8.500000e-01
1.000000e+00
8.500000e-01
1.000000e+00
8.500000e-01
1.000000e+00
8.500000e-01
1.000000e+00
8.500000e-01
1.000000e+00
8.500000e-01
1.000000e+00
8.500000e-01
1.000000e+00
8.500000e-01
1.000000e+00
8.500000e-01
1.000000e+00
8.500000e-01
1.000000e+00
8.500000e-01
1.000000e+00
8.500000e-01
1.000000e+00
8.500000e-01
1.000000e+00
8.500000e-01
1.000000e+00
8.500000e-01
1.000000e+00
8.500000e-01
1.000000e+00
8.500000e-01
1.000000e+00
8.500000e-01
1.000000e+00
8.500000e-01
1.000000e+00
8.500000e-01
1.000000e+00
8.500000e-01
1.000000e+00
8.500000e-01
1.000000e+00
8.500000e-01
1.000000e+00
8.500000e-01
1.000000e+00
</DataArray>
<DataArray type="Float32" Name="V5" format="ascii">
0.000000e+00
0.000000e+00
5.235988e-02
5.235988e-02
5.235988e-02
5.235988e-02
1.047198e-01
1.047198e-01
1.047198e-01
1.047198e-01
1.570796e-01
1.570796e-01
1.570796e-01
1.570796e-01
2.094395e-01
2.094395e-01
2.094395e-01
2.094395e-01
2.617994e-01
2.617994e-01
2.617994e-01
2.617994e-01
3.141593e-01
3.141593e-01
3.141593e-01
3.141593e-01
3.665191e-01
3.665191e-01
3.665191e-01
3.665191e-01
4.188790e-01
4.188790e-01
4.188790e-01
4.188790e-01
4.712389e-01
4.712389e-01
4.712389e-01
4.712389e-01
5.235988e-01
5.235988e-01
5.235988e-01
5.235988e-01
5.759587e-01
5.759587e-01
5.759587e-01
5.759587e-01
6.283185e-01
6.283185e-01
6.283185e-01
6.283185e-01
6.806784e-01
6.806784e-01
6.806784e-01
6.806784e-01
7.330383e-01
7.330383e-01
7.330383e-01
7.330383e-01
7.853982e-01
7.853982e-01
7.853982e-01
7.853982e-01
8.377580e-01
8.377580e-01
8.377580e-01
8.377580e-01
8.901179e-01
8.901179e-01
8.901179e-01
8.901179e-01
9.424778e-01
9.424778e-01
9.424778e-01
9.424778e-01
9.948377e-01
9.948377e-01
9.948377e-01
9.948377e-01
1.047198e+00
1.047198e+00
1.047198e+00
1.047198e+00
1.099557e+00
1.099557e+00
1.099557e+00
1.099557e+00
1.151917e+00
1.151917e+00
1.151917e+00
1.151917e+00
1.204277e+00
1.204277e+00
1.204277e+00
1.204277e+00
1.256637e+00
1.256637e+00
1.256637e+00
1.256637e+00
1.308997e+00
1.308997e+00
1.308997e+00
1.308997e+00
1.361357e+00
1.361357e+00
1.361357e+00
1.361357e+00
1.413717e+00
1.413717e+00
1.413717e+00
1.413717e+00
1.466077e+00
1.466077e+00
1.466077e+00
1.466077e+00
1.518436e+00
1.518436e+00
1.518436e+00
1.518436e+00
1.570796e+00
1.570796e+00
</DataArray>
</PointData>
</Piece></UnstructuredGrid>
</VTKFile>
