<?xml version="1.0"?>
<VTKFile type="UnstructuredGrid" version="0.1" byte_order="LittleEndian" compressor="vtkZLibDataCompressor">
<UnstructuredGrid>
<Piece NumberOfPoints="120" NumberOfCells="30">
<Points>
<DataArray type="Float32" NumberOfComponents="3" format="ascii">
0.000000e+00 9.021880e-01 0.000000e+00
0.000000e+00 1.010000e+00 0.000000e+00
5.705572e-02 9.022878e-01 0.000000e+00
5.739628e-02 1.010000e+00 0.000000e+00
5.705572e-02 9.022878e-01 0.000000e+00
5.739628e-02 1.010000e+00 0.000000e+00
1.140140e-01 9.025513e-01 0.000000e+00
1.149460e-01 1.010000e+00 0.000000e+00
1.140140e-01 9.025513e-01 0.000000e+00
1.149460e-01 1.010000e+00 0.000000e+00
1.707231e-01 9.029674e-01 0.000000e+00
1.728380e-01 1.010000e+00 0.000000e+00
1.707231e-01 9.029674e-01 0.000000e+00
1.728380e-01 1.010000e+00 0.000000e+00
2.269149e-01 9.034274e-01 0.000000e+00
2.312841e-01 1.010000e+00 0.000000e+00
2.269149e-01 9.034274e-01 0.000000e+00
2.312841e-01 1.010000e+00 0.000000e+00
2.821360e-01 9.034930e-01 0.000000e+00
2.904095e-01 1.010000e+00 0.000000e+00
2.821360e-01 9.034930e-01 0.000000e+00
2.904095e-01 1.010000e+00 0.000000e+00
3.363002e-01 9.026473e-01 0.000000e+00
3.496016e-01 1.010000e+00 0.000000e+00
3.363002e-01 9.026473e-01 0.000000e+00
3.496016e-01 1.010000e+00 0.000000e+00
3.896490e-01 8.980220e-01 0.000000e+00
4.082452e-01 1.004550e+00 0.000000e+00
3.896490e-01 8.980220e-01 0.000000e+00
4.082452e-01 1.004550e+00 0.000000e+00
4.415237e-01 8.892681e-01 0.000000e+00
4.667837e-01 9.936811e-01 0.000000e+00
4.415237e-01 8.892681e-01 0.000000e+00
4.667837e-01 9.936811e-01 0.000000e+00
4.922944e-01 8.762078e-01 0.000000e+00
5.246494e-01 9.779922e-01 0.000000e+00
4.922944e-01 8.762078e-01 0.000000e+00
5.246494e-01 9.779922e-01 0.000000e+00
5.419188e-01 8.590769e-01 0.000000e+00
5.812775e-01 9.577831e-01 0.000000e+00
5.419188e-01 8.590769e-01 0.000000e+00
5.812775e-01 9.577831e-01 0.000000e+00
5.902494e-01 8.381342e-01 0.000000e+00
6.362834e-01 9.333873e-01 0.000000e+00
5.902494e-01 8.381342e-01 0.000000e+00
6.362834e-01 9.333873e-01 0.000000e+00
6.371133e-01 8.136347e-01 0.000000e+00
6.894036e-01 9.051310e-01 0.000000e+00
6.371133e-01 8.136347e-01 0.000000e+00
6.894036e-01 9.051310e-01 0.000000e+00
6.823388e-01 7.858236e-01 0.000000e+00
7.404452e-01 8.733150e-01 0.000000e+00
6.823388e-01 7.858236e-01 0.000000e+00
7.404452e-01 8.733150e-01 0.000000e+00
7.257638e-01 7.549342e-01 0.000000e+00
7.892558e-01 8.382123e-01 0.000000e+00
7.257638e-01 7.549342e-01 0.000000e+00
7.892558e-01 8.382123e-01 0.000000e+00
7.672394e-01 7.211870e-01 0.000000e+00
8.357069e-01 8.000719e-01 0.000000e+00
7.672394e-01 7.211870e-01 0.000000e+00
8.357069e-01 8.000719e-01 0.000000e+00
8.066299e-01 6.847910e-01 0.000000e+00
8.796854e-01 7.591230e-01 0.000000e+00
8.066299e-01 6.847910e-01 0.000000e+00
8.796854e-01 7.591230e-01 0.000000e+00
8.438117e-01 6.459455e-01 0.000000e+00
9.210882e-01 7.155798e-01 0.000000e+00
8.438117e-01 6.459455e-01 0.000000e+00
9.210882e-01 7.155798e-01 0.000000e+00
8.786723e-01 6.048417e-01 0.000000e+00
9.598203e-01 6.696455e-01 0.000000e+00
8.786723e-01 6.048417e-01 0.000000e+00
9.598203e-01 6.696455e-01 0.000000e+00
9.111097e-01 5.616649e-01 0.000000e+00
9.957932e-01 6.215154e-01 0.000000e+00
9.111097e-01 5.616649e-01 0.000000e+00
9.957932e-01 6.215154e-01 0.000000e+00
9.410312e-01 5.165952e-01 0.000000e+00
1.028925e+00 5.713794e-01 0.000000e+00
9.410312e-01 5.165952e-01 0.000000e+00
1.028925e+00 5.713794e-01 0.000000e+00
9.683529e-01 4.698099e-01 0.000000e+00
1.059139e+00 5.194234e-01 0.000000e+00
9.683529e-01 4.698099e-01 0.000000e+00
1.059139e+00 5.194234e-01 0.000000e+00
9.929996e-01 4.214833e-01 0.000000e+00
1.086365e+00 4.658313e-01 0.000000e+00
9.929996e-01 4.214833e-01 0.000000e+00
1.086365e+00 4.658313e-01 0.000000e+00
1.014904e+00 3.717884e-01 0.000000e+00
1.110542e+00 4.107852e-01 0.000000e+00
1.014904e+00 3.717884e-01 0.000000e+00
1.110542e+00 4.107852e-01 0.000000e+00
1.034007e+00 3.208971e-01 0.000000e+00
1.131611e+00 3.544669e-01 0.000000e+00
1.034007e+00 3.208971e-01 0.000000e+00
1.131611e+00 3.544669e-01 0.000000e+00
1.050258e+00 2.689805e-01 0.000000e+00
1.149524e+00 2.970576e-01 0.000000e+00
1.050258e+00 2.689805e-01 0.000000e+00
1.149524e+00 2.970576e-01 0.000000e+00
1.063613e+00 2.162097e-01 0.000000e+00
1.164238e+00 2.387387e-01 0.000000e+00
1.063613e+00 2.162097e-01 0.000000e+00
1.164238e+00 2.387387e-01 0.000000e+00
1.074037e+00 1.627554e-01 0.000000e+00
1.175719e+00 1.796916e-01 0.000000e+00
1.074037e+00 1.627554e-01 0.000000e+00
1.175719e+00 1.796916e-01 0.000000e+00
1.081502e+00 1.087885e-01 0.000000e+00
1.183939e+00 1.200981e-01 0.000000e+00
1.081502e+00 1.087885e-01 0.000000e+00
1.183939e+00 1.200981e-01 0.000000e+00
1.085989e+00 5.447971e-02 0.000000e+00
1.188879e+00 6.014017e-02 0.000000e+00
1.085989e+00 5.447971e-02 0.000000e+00
1.188879e+00 6.014017e-02 0.000000e+00
1.087486e+00 5.324970e-12 0.000000e+00
1.190527e+00 5.829520e-12 0.000000e+00
</DataArray>
</Points>
<Cells>
<DataArray type="Int32" Name="connectivity" format="ascii">
0 1 3 2
4 5 7 6
8 9 11 10
12 13 15 14
16 17 19 18
20 21 23 22
24 25 27 26
28 29 31 30
32 33 35 34
36 37 39 38
40 41 43 42
44 45 47 46
48 49 51 50
52 53 55 54
56 57 59 58
60 61 63 62
64 65 67 66
68 69 71 70
72 73 75 74
76 77 79 78
80 81 83 82
84 85 87 86
88 89 91 90
92 93 95 94
96 97 99 98
100 101 103 102
104 105 107 106
108 109 111 110
112 113 115 114
116 117 119 118
</DataArray>
<DataArray type="Int32" Name="offsets" format="ascii">
4
8
12
16
20
24
28
32
36
40
44
48
52
56
60
64
68
72
76
80
84
88
92
96
100
104
108
112
116
120
</DataArray>
<DataArray type="UInt8" Name="types" format="ascii">
9
9
9
9
9
9
9
9
9
9
9
9
9
9
9
9
9
9
9
9
9
9
9
9
9
9
9
9
9
9
</DataArray>
</Cells>
<PointData>
<DataArray type="Float32" Name="V1" format="ascii">
1.367827e+01
2.658289e-01
1.369876e+01
2.863184e-01
1.362438e+01
3.332491e-01
1.367309e+01
3.819581e-01
1.347649e+01
5.160305e-01
1.357224e+01
6.117862e-01
1.313054e+01
9.228681e-01
1.331385e+01
1.106169e+00
1.241425e+01
1.757075e+00
1.281564e+01
2.158470e+00
1.105601e+01
3.570157e+00
1.188957e+01
4.403726e+00
1.003700e+01
6.095895e+00
1.051775e+01
6.576640e+00
9.718369e+00
7.113083e+00
9.958093e+00
7.352807e+00
9.611797e+00
7.635314e+00
9.831276e+00
7.854793e+00
9.693966e+00
7.970619e+00
9.895817e+00
8.172470e+00
9.866853e+00
8.197537e+00
1.004849e+01
8.379178e+00
1.007483e+01
8.357797e+00
1.023602e+01
8.518983e+00
1.028864e+01
8.475800e+00
1.043052e+01
8.617673e+00
1.049352e+01
8.566129e+00
1.061782e+01
8.690428e+00
1.068264e+01
8.637649e+00
1.079126e+01
8.746267e+00
1.085348e+01
8.695860e+00
1.094824e+01
8.790620e+00
1.100574e+01
8.744250e+00
1.108830e+01
8.826809e+00
1.114024e+01
8.785097e+00
1.121205e+01
8.856915e+00
1.125827e+01
8.819935e+00
1.132061e+01
8.882278e+00
1.136129e+01
8.849834e+00
1.141524e+01
8.903786e+00
1.145071e+01
8.875569e+00
1.149719e+01
8.922050e+00
1.152784e+01
8.897716e+00
1.156763e+01
8.937506e+00
1.159387e+01
8.916722e+00
1.162762e+01
8.950473e+00
1.164979e+01
8.932934e+00
1.167805e+01
8.961190e+00
1.169648e+01
8.946631e+00
1.171969e+01
8.969841e+00
1.173465e+01
8.958037e+00
1.175317e+01
8.976562e+00
1.176488e+01
8.967331e+00
1.177901e+01
8.981455e+00
1.178764e+01
8.974655e+00
1.179758e+01
8.984594e+00
1.180326e+01
8.980118e+00
1.180916e+01
8.986022e+00
1.181199e+01
8.983801e+00
1.181394e+01
8.985760e+00
</DataArray>
<DataArray type="Float32" Name="V2" format="ascii">
9.021880e-01
1.010000e+00
9.040374e-01
1.011620e+00
9.040374e-01
1.011620e+00
9.095247e-01
1.016482e+00
9.095247e-01
1.016482e+00
9.185573e-01
1.024603e+00
9.185573e-01
1.024603e+00
9.308636e-01
1.036016e+00
9.308636e-01
1.036016e+00
9.457294e-01
1.050749e+00
9.457294e-01
1.050749e+00
9.623910e-01
1.068600e+00
9.623910e-01
1.068600e+00
9.780135e-01
1.084130e+00
9.780135e-01
1.084130e+00
9.919707e-01
1.097631e+00
9.919707e-01
1.097631e+00
1.004204e+00
1.109583e+00
1.004204e+00
1.109583e+00
1.014942e+00
1.120103e+00
1.014942e+00
1.120103e+00
1.024391e+00
1.129349e+00
1.024391e+00
1.129349e+00
1.032730e+00
1.137488e+00
1.032730e+00
1.137488e+00
1.040109e+00
1.144670e+00
1.040109e+00
1.144670e+00
1.046656e+00
1.151028e+00
1.046656e+00
1.151028e+00
1.052476e+00
1.156670e+00
1.052476e+00
1.156670e+00
1.057657e+00
1.161686e+00
1.057657e+00
1.161686e+00
1.062272e+00
1.166149e+00
1.062272e+00
1.166149e+00
1.066378e+00
1.170119e+00
1.066378e+00
1.170119e+00
1.070026e+00
1.173644e+00
1.070026e+00
1.173644e+00
1.073255e+00
1.176765e+00
1.073255e+00
1.176765e+00
1.076098e+00
1.179513e+00
1.076098e+00
1.179513e+00
1.078583e+00
1.181915e+00
1.078583e+00
1.181915e+00
1.080732e+00
1.183992e+00
1.080732e+00
1.183992e+00
1.082562e+00
1.185762e+00
1.082562e+00
1.185762e+00
1.084088e+00
1.187239e+00
1.084088e+00
1.187239e+00
1.085323e+00
1.188433e+00
1.085323e+00
1.188433e+00
1.086274e+00
1.189354e+00
1.086274e+00
1.189354e+00
1.086949e+00
1.190007e+00
1.086949e+00
1.190007e+00
1.087352e+00
1.190397e+00
1.087352e+00
1.190397e+00
1.087486e+00
1.190527e+00
</DataArray>
<DataArray type="Float32" Name="V3" format="ascii">
0.000000e+00
0.000000e+00
9.755428e-03
4.458307e-03
9.755428e-03
4.458307e-03
1.904713e-02
8.742592e-03
1.904713e-02
8.742592e-03
2.736602e-02
1.271123e-02
2.736602e-02
1.271123e-02
3.412316e-02
1.623921e-02
3.412316e-02
1.623921e-02
3.868126e-02
1.910682e-02
3.868126e-02
1.910682e-02
4.090714e-02
2.038375e-02
4.090714e-02
2.038375e-02
4.194637e-02
2.113141e-02
4.194637e-02
2.113141e-02
4.165405e-02
2.226162e-02
4.165405e-02
2.226162e-02
4.084750e-02
2.346687e-02
4.084750e-02
2.346687e-02
3.977701e-02
2.450957e-02
3.977701e-02
2.450957e-02
3.854415e-02
2.527297e-02
3.854415e-02
2.527297e-02
3.719307e-02
2.571657e-02
3.719307e-02
2.571657e-02
3.574199e-02
2.583910e-02
3.574199e-02
2.583910e-02
3.419799e-02
2.565783e-02
3.419799e-02
2.565783e-02
3.256396e-02
2.519775e-02
3.256396e-02
2.519775e-02
3.084185e-02
2.448611e-02
3.084185e-02
2.448611e-02
2.903395e-02
2.354970e-02
2.903395e-02
2.354970e-02
2.714339e-02
2.241367e-02
2.714339e-02
2.241367e-02
2.517414e-02
2.110116e-02
2.517414e-02
2.110116e-02
2.313100e-02
1.963327e-02
2.313100e-02
1.963327e-02
2.101937e-02
1.802920e-02
2.101937e-02
1.802920e-02
1.884517e-02
1.630654e-02
1.884517e-02
1.630654e-02
1.661469e-02
1.448144e-02
1.661469e-02
1.448144e-02
1.433454e-02
1.256893e-02
1.433454e-02
1.256893e-02
1.201150e-02
1.058304e-02
1.201150e-02
1.058304e-02
9.652550e-03
8.537071e-03
9.652550e-03
8.537071e-03
7.264747e-03
6.443707e-03
7.264747e-03
6.443707e-03
4.855245e-03
4.315177e-03
4.855245e-03
4.315177e-03
2.431250e-03
2.163379e-03
2.431250e-03
2.163379e-03
0.000000e+00
0.000000e+00
</DataArray>
<DataArray type="Float32" Name="V4" format="ascii">
8.500000e-01
1.000000e+00
8.500000e-01
1.000000e+00
8.500000e-01
1.000000e+00
8.500000e-01
1.000000e+00
8.500000e-01
1.000000e+00
8.500000e-01
1.000000e+00
8.500000e-01
1.000000e+00
8.500000e-01
1.000000e+00
8.500000e-01
1.000000e+00
8.500000e-01
1.000000e+00
8.500000e-01
1.000000e+00
8.500000e-01
1.000000e+00
8.500000e-01
1.000000e+00
8.500000e-01
1.000000e+00
8.500000e-01
1.000000e+00
8.500000e-01
1.000000e+00
8.500000e-01
1.000000e+00
8.500000e-01
1.000000e+00
8.500000e-01
1.000000e+00
8.500000e-01
1.000000e+00
8.500000e-01
1.000000e+00
8.500000e-01
1.000000e+00
8.500000e-01
1.000000e+00
8.500000e-01
1.000000e+00
8.500000e-01
1.000000e+00
8.500000e-01
1.000000e+00
8.500000e-01
1.000000e+00
8.500000e-01
1.000000e+00
8.500000e-01
1.000000e+00
8.500000e-01
1.000000e+00
8.500000e-01
1.000000e+00
8.500000e-01
1.000000e+00
8.500000e-01
1.000000e+00
8.500000e-01
1.000000e+00
8.500000e-01
1.000000e+00
8.500000e-01
1.000000e+00
8.500000e-01
1.000000e+00
8.500000e-01
1.000000e+00
8.500000e-01
1.000000e+00
8.500000e-01
1.000000e+00
8.500000e-01
1.000000e+00
8.500000e-01
1.000000e+00
8.500000e-01
1.000000e+00
8.500000e-01
1.000000e+00
8.500000e-01
1.000000e+00
8.500000e-01
1.000000e+00
8.500000e-01
1.000000e+00
8.500000e-01
1.000000e+00
8.500000e-01
1.000000e+00
8.500000e-01
1.000000e+00
8.500000e-01
1.000000e+00
8.500000e-01
1.000000e+00
8.500000e-01
1.000000e+00
8.500000e-01
1.000000e+00
8.500000e-01
1.000000e+00
8.500000e-01
1.000000e+00
8.500000e-01
1.000000e+00
8.500000e-01
1.000000e+00
8.500000e-01
1.000000e+00
8.500000e-01
1.000000e+00
</DataArray>
<DataArray type="Float32" Name="V5" format="ascii">
0.000000e+00
0.000000e+00
5.235988e-02
5.235988e-02
5.235988e-02
5.235988e-02
1.047198e-01
1.047198e-01
1.047198e-01
1.047198e-01
1.570796e-01
1.570796e-01
1.570796e-01
1.570796e-01
2.094395e-01
2.094395e-01
2.094395e-01
2.094395e-01
2.617994e-01
2.617994e-01
2.617994e-01
2.617994e-01
3.141593e-01
3.141593e-01
3.141593e-01
3.141593e-01
3.665191e-01
3.665191e-01
3.665191e-01
3.665191e-01
4.188790e-01
4.188790e-01
4.188790e-01
4.188790e-01
4.712389e-01
4.712389e-01
4.712389e-01
4.712389e-01
5.235988e-01
5.235988e-01
5.235988e-01
5.235988e-01
5.759587e-01
5.759587e-01
5.759587e-01
5.759587e-01
6.283185e-01
6.283185e-01
6.283185e-01
6.283185e-01
6.806784e-01
6.806784e-01
6.806784e-01
6.806784e-01
7.330383e-01
7.330383e-01
7.330383e-01
7.330383e-01
7.853982e-01
7.853982e-01
7.853982e-01
7.853982e-01
8.377580e-01
8.377580e-01
8.377580e-01
8.377580e-01
8.901179e-01
8.901179e-01
8.901179e-01
8.901179e-01
9.424778e-01
9.424778e-01
9.424778e-01
9.424778e-01
9.948377e-01
9.948377e-01
9.948377e-01
9.948377e-01
1.047198e+00
1.047198e+00
1.047198e+00
1.047198e+00
1.099557e+00
1.099557e+00
1.099557e+00
1.099557e+00
1.151917e+00
1.151917e+00
1.151917e+00
1.151917e+00
1.204277e+00
1.204277e+00
1.204277e+00
1.204277e+00
1.256637e+00
1.256637e+00
1.256637e+00
1.256637e+00
1.308997e+00
1.308997e+00
1.308997e+00
1.308997e+00
1.361357e+00
1.361357e+00
1.361357e+00
1.361357e+00
1.413717e+00
1.413717e+00
1.413717e+00
1.413717e+00
1.466077e+00
1.466077e+00
1.466077e+00
1.466077e+00
1.518436e+00
1.518436e+00
1.518436e+00
1.518436e+00
1.570796e+00
1.570796e+00
</DataArray>
</PointData>
</Piece></UnstructuredGrid>
</VTKFile>
