<?xml version="1.0"?>
<VTKFile type="UnstructuredGrid" version="0.1" byte_order="LittleEndian" compressor="vtkZLibDataCompressor">
<UnstructuredGrid>
<Piece NumberOfPoints="120" NumberOfCells="30">
<Points>
<DataArray type="Float32" NumberOfComponents="3" format="ascii">
0.000000e+00 6.610899e-01 0.000000e+00
0.000000e+00 7.600000e-01 0.000000e+00
5.977378e-02 6.611439e-01 0.000000e+00
5.967352e-02 7.600000e-01 0.000000e+00
5.977378e-02 6.611439e-01 0.000000e+00
5.967352e-02 7.600000e-01 0.000000e+00
1.195477e-01 6.612788e-01 0.000000e+00
1.193470e-01 7.600000e-01 0.000000e+00
1.195477e-01 6.612788e-01 0.000000e+00
1.193470e-01 7.600000e-01 0.000000e+00
1.793191e-01 6.615040e-01 0.000000e+00
1.790222e-01 7.600000e-01 0.000000e+00
1.793191e-01 6.615040e-01 0.000000e+00
1.790222e-01 7.600000e-01 0.000000e+00
2.390861e-01 6.618194e-01 0.000000e+00
2.387011e-01 7.600000e-01 0.000000e+00
2.390861e-01 6.618194e-01 0.000000e+00
2.387011e-01 7.600000e-01 0.000000e+00
2.988443e-01 6.622259e-01 0.000000e+00
2.983898e-01 7.600000e-01 0.000000e+00
2.988443e-01 6.622259e-01 0.000000e+00
2.983898e-01 7.600000e-01 0.000000e+00
3.585855e-01 6.627261e-01 0.000000e+00
3.581016e-01 7.600000e-01 0.000000e+00
3.585855e-01 6.627261e-01 0.000000e+00
3.581016e-01 7.600000e-01 0.000000e+00
4.182927e-01 6.633251e-01 0.000000e+00
4.178650e-01 7.600000e-01 0.000000e+00
4.182927e-01 6.633251e-01 0.000000e+00
4.178650e-01 7.600000e-01 0.000000e+00
4.779314e-01 6.640321e-01 0.000000e+00
4.777379e-01 7.600000e-01 0.000000e+00
4.779314e-01 6.640321e-01 0.000000e+00
4.777379e-01 7.600000e-01 0.000000e+00
5.374311e-01 6.648580e-01 0.000000e+00
5.378297e-01 7.600000e-01 0.000000e+00
5.374311e-01 6.648580e-01 0.000000e+00
5.378297e-01 7.600000e-01 0.000000e+00
5.966491e-01 6.658029e-01 0.000000e+00
5.983303e-01 7.600000e-01 0.000000e+00
5.966491e-01 6.658029e-01 0.000000e+00
5.983303e-01 7.600000e-01 0.000000e+00
6.553025e-01 6.668068e-01 0.000000e+00
6.595171e-01 7.600000e-01 0.000000e+00
6.553025e-01 6.668068e-01 0.000000e+00
6.595171e-01 7.600000e-01 0.000000e+00
7.128545e-01 6.675303e-01 0.000000e+00
7.216414e-01 7.600000e-01 0.000000e+00
7.128545e-01 6.675303e-01 0.000000e+00
7.216414e-01 7.600000e-01 0.000000e+00
7.689591e-01 6.674583e-01 0.000000e+00
7.839529e-01 7.600000e-01 0.000000e+00
7.689591e-01 6.674583e-01 0.000000e+00
7.839529e-01 7.600000e-01 0.000000e+00
8.238930e-01 6.626288e-01 0.000000e+00
8.449903e-01 7.535324e-01 0.000000e+00
8.238930e-01 6.626288e-01 0.000000e+00
8.449903e-01 7.535324e-01 0.000000e+00
8.764697e-01 6.510765e-01 0.000000e+00
9.052975e-01 7.385015e-01 0.000000e+00
8.764697e-01 6.510765e-01 0.000000e+00
9.052975e-01 7.385015e-01 0.000000e+00
9.268679e-01 6.332025e-01 0.000000e+00
9.639139e-01 7.162843e-01 0.000000e+00
9.268679e-01 6.332025e-01 0.000000e+00
9.639139e-01 7.162843e-01 0.000000e+00
9.748552e-01 6.094537e-01 0.000000e+00
1.019742e+00 6.874818e-01 0.000000e+00
9.748552e-01 6.094537e-01 0.000000e+00
1.019742e+00 6.874818e-01 0.000000e+00
1.020145e+00 5.804396e-01 0.000000e+00
1.072131e+00 6.529026e-01 0.000000e+00
1.020145e+00 5.804396e-01 0.000000e+00
1.072131e+00 6.529026e-01 0.000000e+00
1.062468e+00 5.467382e-01 0.000000e+00
1.120699e+00 6.133174e-01 0.000000e+00
1.062468e+00 5.467382e-01 0.000000e+00
1.120699e+00 6.133174e-01 0.000000e+00
1.101603e+00 5.089041e-01 0.000000e+00
1.165234e+00 5.694252e-01 0.000000e+00
1.101603e+00 5.089041e-01 0.000000e+00
1.165234e+00 5.694252e-01 0.000000e+00
1.137371e+00 4.674541e-01 0.000000e+00
1.205622e+00 5.218396e-01 0.000000e+00
1.137371e+00 4.674541e-01 0.000000e+00
1.205622e+00 5.218396e-01 0.000000e+00
1.169635e+00 4.228654e-01 0.000000e+00
1.241803e+00 4.710976e-01 0.000000e+00
1.169635e+00 4.228654e-01 0.000000e+00
1.241803e+00 4.710976e-01 0.000000e+00
1.198289e+00 3.755773e-01 0.000000e+00
1.273748e+00 4.176717e-01 0.000000e+00
1.198289e+00 3.755773e-01 0.000000e+00
1.273748e+00 4.176717e-01 0.000000e+00
1.223253e+00 3.259947e-01 0.000000e+00
1.301443e+00 3.619833e-01 0.000000e+00
1.223253e+00 3.259947e-01 0.000000e+00
1.301443e+00 3.619833e-01 0.000000e+00
1.244463e+00 2.744941e-01 0.000000e+00
1.324882e+00 3.044142e-01 0.000000e+00
1.244463e+00 2.744941e-01 0.000000e+00
1.324882e+00 3.044142e-01 0.000000e+00
1.261873e+00 2.214282e-01 0.000000e+00
1.344061e+00 2.453159e-01 0.000000e+00
1.261873e+00 2.214282e-01 0.000000e+00
1.344061e+00 2.453159e-01 0.000000e+00
1.275448e+00 1.671310e-01 0.000000e+00
1.358980e+00 1.850177e-01 0.000000e+00
1.275448e+00 1.671310e-01 0.000000e+00
1.358980e+00 1.850177e-01 0.000000e+00
1.285162e+00 1.119220e-01 0.000000e+00
1.369636e+00 1.238325e-01 0.000000e+00
1.285162e+00 1.119220e-01 0.000000e+00
1.369636e+00 1.238325e-01 0.000000e+00
1.290997e+00 5.611078e-02 0.000000e+00
1.376030e+00 6.206176e-02 0.000000e+00
1.290997e+00 5.611078e-02 0.000000e+00
1.376030e+00 6.206176e-02 0.000000e+00
1.292944e+00 6.331010e-12 0.000000e+00
1.378162e+00 6.748290e-12 0.000000e+00
</DataArray>
</Points>
<Cells>
<DataArray type="Int32" Name="connectivity" format="ascii">
0 1 3 2
4 5 7 6
8 9 11 10
12 13 15 14
16 17 19 18
20 21 23 22
24 25 27 26
28 29 31 30
32 33 35 34
36 37 39 38
40 41 43 42
44 45 47 46
48 49 51 50
52 53 55 54
56 57 59 58
60 61 63 62
64 65 67 66
68 69 71 70
72 73 75 74
76 77 79 78
80 81 83 82
84 85 87 86
88 89 91 90
92 93 95 94
96 97 99 98
100 101 103 102
104 105 107 106
108 109 111 110
112 113 115 114
116 117 119 118
</DataArray>
<DataArray type="Int32" Name="offsets" format="ascii">
4
8
12
16
20
24
28
32
36
40
44
48
52
56
60
64
68
72
76
80
84
88
92
96
100
104
108
112
116
120
</DataArray>
<DataArray type="UInt8" Name="types" format="ascii">
9
9
9
9
9
9
9
9
9
9
9
9
9
9
9
9
9
9
9
9
9
9
9
9
9
9
9
9
9
9
</DataArray>
</Cells>
<PointData>
<DataArray type="Float32" Name="V1" format="ascii">
1.785083e+01
-3.125845e-01
1.787659e+01
-2.868228e-01
1.790927e+01
-3.097033e-01
1.797772e+01
-2.412616e-01
1.804528e+01
-2.874162e-01
1.816096e+01
-1.717401e-01
1.826192e+01
-2.417056e-01
1.842588e+01
-7.774302e-02
1.855982e+01
-1.712532e-01
1.877363e+01
4.255141e-02
1.893798e+01
-7.292528e-02
1.920387e+01
1.929648e-01
1.939074e+01
6.038289e-02
1.971205e+01
3.816870e-01
1.990146e+01
2.444725e-01
2.028369e+01
6.267035e-01
2.043000e+01
5.140116e-01
2.088359e+01
9.676053e-01
2.088961e+01
9.439461e-01
2.143640e+01
1.490738e+00
2.110820e+01
1.694315e+00
2.179736e+01
2.383470e+00
2.077505e+01
3.088692e+00
2.175578e+01
4.069423e+00
1.932590e+01
6.022794e+00
2.094031e+01
7.637195e+00
1.788965e+01
1.050843e+01
1.925497e+01
1.187375e+01
1.784781e+01
1.273333e+01
1.872159e+01
1.360711e+01
1.832023e+01
1.394064e+01
1.918211e+01
1.480252e+01
1.919884e+01
1.479683e+01
2.003152e+01
1.562951e+01
2.027189e+01
1.543353e+01
2.105330e+01
1.621494e+01
2.139898e+01
1.592956e+01
2.211463e+01
1.664521e+01
2.249976e+01
1.632881e+01
2.314311e+01
1.697217e+01
2.352910e+01
1.665800e+01
2.409871e+01
1.722761e+01
2.446359e+01
1.693367e+01
2.496093e+01
1.743101e+01
2.529264e+01
1.716642e+01
2.572063e+01
1.759441e+01
2.601300e+01
1.736325e+01
2.637513e+01
1.772538e+01
2.662544e+01
1.752896e+01
2.692521e+01
1.782873e+01
2.713266e+01
1.766695e+01
2.737329e+01
1.790758e+01
2.753808e+01
1.777970e+01
2.772230e+01
1.796392e+01
2.784504e+01
1.786904e+01
2.797505e+01
1.799904e+01
2.805641e+01
1.793630e+01
2.813378e+01
1.801367e+01
2.817431e+01
1.798246e+01
2.819999e+01
1.800814e+01
</DataArray>
<DataArray type="Float32" Name="V2" format="ascii">
6.610899e-01
7.600000e-01
6.633662e-01
7.620815e-01
6.633662e-01
7.620815e-01
6.701524e-01
7.683118e-01
6.701524e-01
7.683118e-01
6.814115e-01
7.786484e-01
6.814115e-01
7.786484e-01
6.970658e-01
7.930209e-01
6.970658e-01
7.930209e-01
7.170077e-01
8.113326e-01
7.170077e-01
8.113326e-01
7.410990e-01
8.334624e-01
7.410990e-01
8.334624e-01
7.691701e-01
8.592705e-01
7.691701e-01
8.592705e-01
8.010157e-01
8.886080e-01
8.010157e-01
8.886080e-01
8.363814e-01
9.213346e-01
8.363814e-01
9.213346e-01
8.749268e-01
9.573445e-01
8.749268e-01
9.573445e-01
9.161345e-01
9.965884e-01
9.161345e-01
9.965884e-01
9.590488e-01
1.039023e+00
9.590488e-01
1.039023e+00
1.002634e+00
1.083989e+00
1.002634e+00
1.083989e+00
1.043721e+00
1.125393e+00
1.043721e+00
1.125393e+00
1.080138e+00
1.162341e+00
1.080138e+00
1.162341e+00
1.112492e+00
1.195615e+00
1.112492e+00
1.195615e+00
1.141146e+00
1.225134e+00
1.141146e+00
1.225134e+00
1.166488e+00
1.251139e+00
1.166488e+00
1.251139e+00
1.188836e+00
1.273934e+00
1.188836e+00
1.273934e+00
1.208468e+00
1.293835e+00
1.208468e+00
1.293835e+00
1.225625e+00
1.311127e+00
1.225625e+00
1.311127e+00
1.240510e+00
1.326056e+00
1.240510e+00
1.326056e+00
1.253294e+00
1.338826e+00
1.253294e+00
1.338826e+00
1.264120e+00
1.349605e+00
1.264120e+00
1.349605e+00
1.273103e+00
1.358526e+00
1.273103e+00
1.358526e+00
1.280336e+00
1.365694e+00
1.280336e+00
1.365694e+00
1.285891e+00
1.371191e+00
1.285891e+00
1.371191e+00
1.289821e+00
1.375077e+00
1.289821e+00
1.375077e+00
1.292165e+00
1.377393e+00
1.292165e+00
1.377393e+00
1.292944e+00
1.378162e+00
</DataArray>
<DataArray type="Float32" Name="V3" format="ascii">
0.000000e+00
0.000000e+00
2.509027e-02
1.981642e-02
2.509027e-02
1.981642e-02
4.977035e-02
3.925160e-02
4.977035e-02
3.925160e-02
7.362941e-02
5.792791e-02
7.362941e-02
5.792791e-02
9.626149e-02
7.547203e-02
9.626149e-02
7.547203e-02
1.172648e-01
9.151993e-02
1.172648e-01
9.151993e-02
1.362415e-01
1.057219e-01
1.362415e-01
1.057219e-01
1.527954e-01
1.177509e-01
1.527954e-01
1.177509e-01
1.665259e-01
1.273154e-01
1.665259e-01
1.273154e-01
1.770155e-01
1.341770e-01
1.770155e-01
1.341770e-01
1.838118e-01
1.381693e-01
1.838118e-01
1.381693e-01
1.864139e-01
1.391919e-01
1.864139e-01
1.391919e-01
1.843469e-01
1.371034e-01
1.843469e-01
1.371034e-01
1.775484e-01
1.309624e-01
1.775484e-01
1.309624e-01
1.688866e-01
1.237386e-01
1.688866e-01
1.237386e-01
1.593770e-01
1.179426e-01
1.593770e-01
1.179426e-01
1.496346e-01
1.126813e-01
1.496346e-01
1.126813e-01
1.398617e-01
1.074705e-01
1.398617e-01
1.074705e-01
1.300406e-01
1.019734e-01
1.300406e-01
1.019734e-01
1.201285e-01
9.600508e-02
1.201285e-01
9.600508e-02
1.100777e-01
8.948033e-02
1.100777e-01
8.948033e-02
9.985108e-02
8.237832e-02
9.985108e-02
8.237832e-02
8.942670e-02
7.471767e-02
8.942670e-02
7.471767e-02
7.879692e-02
6.654034e-02
7.879692e-02
6.654034e-02
6.796643e-02
5.790145e-02
6.796643e-02
5.790145e-02
5.694972e-02
4.886313e-02
5.694972e-02
4.886313e-02
4.576870e-02
3.949083e-02
4.576870e-02
3.949083e-02
3.445075e-02
2.985137e-02
3.445075e-02
2.985137e-02
2.302712e-02
2.001184e-02
2.302712e-02
2.001184e-02
1.153170e-02
1.003916e-02
1.153170e-02
1.003916e-02
0.000000e+00
0.000000e+00
</DataArray>
<DataArray type="Float32" Name="V4" format="ascii">
8.500000e-01
1.000000e+00
8.500000e-01
1.000000e+00
8.500000e-01
1.000000e+00
8.500000e-01
1.000000e+00
8.500000e-01
1.000000e+00
8.500000e-01
1.000000e+00
8.500000e-01
1.000000e+00
8.500000e-01
1.000000e+00
8.500000e-01
1.000000e+00
8.500000e-01
1.000000e+00
8.500000e-01
1.000000e+00
8.500000e-01
1.000000e+00
8.500000e-01
1.000000e+00
8.500000e-01
1.000000e+00
8.500000e-01
1.000000e+00
8.500000e-01
1.000000e+00
8.500000e-01
1.000000e+00
8.500000e-01
1.000000e+00
8.500000e-01
1.000000e+00
8.500000e-01
1.000000e+00
8.500000e-01
1.000000e+00
8.500000e-01
1.000000e+00
8.500000e-01
1.000000e+00
8.500000e-01
1.000000e+00
8.500000e-01
1.000000e+00
8.500000e-01
1.000000e+00
8.500000e-01
1.000000e+00
8.500000e-01
1.000000e+00
8.500000e-01
1.000000e+00
8.500000e-01
1.000000e+00
8.500000e-01
1.000000e+00
8.500000e-01
1.000000e+00
8.500000e-01
1.000000e+00
8.500000e-01
1.000000e+00
8.500000e-01
1.000000e+00
8.500000e-01
1.000000e+00
8.500000e-01
1.000000e+00
8.500000e-01
1.000000e+00
8.500000e-01
1.000000e+00
8.500000e-01
1.000000e+00
8.500000e-01
1.000000e+00
8.500000e-01
1.000000e+00
8.500000e-01
1.000000e+00
8.500000e-01
1.000000e+00
8.500000e-01
1.000000e+00
8.500000e-01
1.000000e+00
8.500000e-01
1.000000e+00
8.500000e-01
1.000000e+00
8.500000e-01
1.000000e+00
8.500000e-01
1.000000e+00
8.500000e-01
1.000000e+00
8.500000e-01
1.000000e+00
8.500000e-01
1.000000e+00
8.500000e-01
1.000000e+00
8.500000e-01
1.000000e+00
8.500000e-01
1.000000e+00
8.500000e-01
1.000000e+00
8.500000e-01
1.000000e+00
8.500000e-01
1.000000e+00
8.500000e-01
1.000000e+00
</DataArray>
<DataArray type="Float32" Name="V5" format="ascii">
0.000000e+00
0.000000e+00
5.235988e-02
5.235988e-02
5.235988e-02
5.235988e-02
1.047198e-01
1.047198e-01
1.047198e-01
1.047198e-01
1.570796e-01
1.570796e-01
1.570796e-01
1.570796e-01
2.094395e-01
2.094395e-01
2.094395e-01
2.094395e-01
2.617994e-01
2.617994e-01
2.617994e-01
2.617994e-01
3.141593e-01
3.141593e-01
3.141593e-01
3.141593e-01
3.665191e-01
3.665191e-01
3.665191e-01
3.665191e-01
4.188790e-01
4.188790e-01
4.188790e-01
4.188790e-01
4.712389e-01
4.712389e-01
4.712389e-01
4.712389e-01
5.235988e-01
5.235988e-01
5.235988e-01
5.235988e-01
5.759587e-01
5.759587e-01
5.759587e-01
5.759587e-01
6.283185e-01
6.283185e-01
6.283185e-01
6.283185e-01
6.806784e-01
6.806784e-01
6.806784e-01
6.806784e-01
7.330383e-01
7.330383e-01
7.330383e-01
7.330383e-01
7.853982e-01
7.853982e-01
7.853982e-01
7.853982e-01
8.377580e-01
8.377580e-01
8.377580e-01
8.377580e-01
8.901179e-01
8.901179e-01
8.901179e-01
8.901179e-01
9.424778e-01
9.424778e-01
9.424778e-01
9.424778e-01
9.948377e-01
9.948377e-01
9.948377e-01
9.948377e-01
1.047198e+00
1.047198e+00
1.047198e+00
1.047198e+00
1.099557e+00
1.099557e+00
1.099557e+00
1.099557e+00
1.151917e+00
1.151917e+00
1.151917e+00
1.151917e+00
1.204277e+00
1.204277e+00
1.204277e+00
1.204277e+00
1.256637e+00
1.256637e+00
1.256637e+00
1.256637e+00
1.308997e+00
1.308997e+00
1.308997e+00
1.308997e+00
1.361357e+00
1.361357e+00
1.361357e+00
1.361357e+00
1.413717e+00
1.413717e+00
1.413717e+00
1.413717e+00
1.466077e+00
1.466077e+00
1.466077e+00
1.466077e+00
1.518436e+00
1.518436e+00
1.518436e+00
1.518436e+00
1.570796e+00
1.570796e+00
</DataArray>
</PointData>
</Piece></UnstructuredGrid>
</VTKFile>
