<?xml version="1.0"?>
<VTKFile type="UnstructuredGrid" version="0.1" byte_order="LittleEndian" compressor="vtkZLibDataCompressor">
<UnstructuredGrid>
<Piece NumberOfPoints="120" NumberOfCells="30">
<Points>
<DataArray type="Float32" NumberOfComponents="3" format="ascii">
0.000000e+00 5.135435e-01 0.000000e+00
0.000000e+00 5.900000e-01 0.000000e+00
6.795371e-02 5.135872e-01 0.000000e+00
6.789062e-02 5.900000e-01 0.000000e+00
6.795371e-02 5.135872e-01 0.000000e+00
6.789062e-02 5.900000e-01 0.000000e+00
1.359022e-01 5.136775e-01 0.000000e+00
1.357750e-01 5.900000e-01 0.000000e+00
1.359022e-01 5.136775e-01 0.000000e+00
1.357750e-01 5.900000e-01 0.000000e+00
2.038370e-01 5.138280e-01 0.000000e+00
2.036470e-01 5.900000e-01 0.000000e+00
2.038370e-01 5.138280e-01 0.000000e+00
2.036470e-01 5.900000e-01 0.000000e+00
2.717513e-01 5.140381e-01 0.000000e+00
2.715000e-01 5.900000e-01 0.000000e+00
2.717513e-01 5.140381e-01 0.000000e+00
2.715000e-01 5.900000e-01 0.000000e+00
3.396375e-01 5.143067e-01 0.000000e+00
3.393274e-01 5.900000e-01 0.000000e+00
3.396375e-01 5.143067e-01 0.000000e+00
3.393274e-01 5.900000e-01 0.000000e+00
4.074873e-01 5.146331e-01 0.000000e+00
4.071223e-01 5.900000e-01 0.000000e+00
4.074873e-01 5.146331e-01 0.000000e+00
4.071223e-01 5.900000e-01 0.000000e+00
4.752914e-01 5.150159e-01 0.000000e+00
4.748780e-01 5.900000e-01 0.000000e+00
4.752914e-01 5.150159e-01 0.000000e+00
4.748780e-01 5.900000e-01 0.000000e+00
5.430390e-01 5.154539e-01 0.000000e+00
5.425883e-01 5.900000e-01 0.000000e+00
5.430390e-01 5.154539e-01 0.000000e+00
5.425883e-01 5.900000e-01 0.000000e+00
6.107172e-01 5.159458e-01 0.000000e+00
6.102483e-01 5.900000e-01 0.000000e+00
6.107172e-01 5.159458e-01 0.000000e+00
6.102483e-01 5.900000e-01 0.000000e+00
6.783093e-01 5.164903e-01 0.000000e+00
6.778566e-01 5.900000e-01 0.000000e+00
6.783093e-01 5.164903e-01 0.000000e+00
6.778566e-01 5.900000e-01 0.000000e+00
7.457935e-01 5.170863e-01 0.000000e+00
7.454191e-01 5.900000e-01 0.000000e+00
7.457935e-01 5.170863e-01 0.000000e+00
7.454191e-01 5.900000e-01 0.000000e+00
8.131379e-01 5.177333e-01 0.000000e+00
8.129551e-01 5.900000e-01 0.000000e+00
8.131379e-01 5.177333e-01 0.000000e+00
8.129551e-01 5.900000e-01 0.000000e+00
8.802935e-01 5.184310e-01 0.000000e+00
8.805105e-01 5.900000e-01 0.000000e+00
8.802935e-01 5.184310e-01 0.000000e+00
8.805105e-01 5.900000e-01 0.000000e+00
9.471795e-01 5.191795e-01 0.000000e+00
9.481796e-01 5.900000e-01 0.000000e+00
9.471795e-01 5.191795e-01 0.000000e+00
9.481796e-01 5.900000e-01 0.000000e+00
1.013653e+00 5.199761e-01 0.000000e+00
1.016140e+00 5.900000e-01 0.000000e+00
1.013653e+00 5.199761e-01 0.000000e+00
1.016140e+00 5.900000e-01 0.000000e+00
1.079442e+00 5.208010e-01 0.000000e+00
1.084697e+00 5.900000e-01 0.000000e+00
1.079442e+00 5.208010e-01 0.000000e+00
1.084697e+00 5.900000e-01 0.000000e+00
1.143987e+00 5.215069e-01 0.000000e+00
1.154236e+00 5.900000e-01 0.000000e+00
1.143987e+00 5.215069e-01 0.000000e+00
1.154236e+00 5.900000e-01 0.000000e+00
1.206952e+00 5.218716e-01 0.000000e+00
1.223272e+00 5.900000e-01 0.000000e+00
1.206952e+00 5.218716e-01 0.000000e+00
1.223272e+00 5.900000e-01 0.000000e+00
1.268106e+00 5.137990e-01 0.000000e+00
1.289759e+00 5.789841e-01 0.000000e+00
1.268106e+00 5.137990e-01 0.000000e+00
1.289759e+00 5.789841e-01 0.000000e+00
1.325624e+00 4.952026e-01 0.000000e+00
1.354221e+00 5.565073e-01 0.000000e+00
1.325624e+00 4.952026e-01 0.000000e+00
1.354221e+00 5.565073e-01 0.000000e+00
1.378934e+00 4.676531e-01 0.000000e+00
1.414656e+00 5.240878e-01 0.000000e+00
1.378934e+00 4.676531e-01 0.000000e+00
1.414656e+00 5.240878e-01 0.000000e+00
1.427476e+00 4.324717e-01 0.000000e+00
1.469705e+00 4.832702e-01 0.000000e+00
1.427476e+00 4.324717e-01 0.000000e+00
1.469705e+00 4.832702e-01 0.000000e+00
1.470833e+00 3.908830e-01 0.000000e+00
1.518640e+00 4.355615e-01 0.000000e+00
1.470833e+00 3.908830e-01 0.000000e+00
1.518640e+00 4.355615e-01 0.000000e+00
1.508716e+00 3.439892e-01 0.000000e+00
1.561115e+00 3.822975e-01 0.000000e+00
1.508716e+00 3.439892e-01 0.000000e+00
1.561115e+00 3.822975e-01 0.000000e+00
1.540939e+00 2.927754e-01 0.000000e+00
1.597000e+00 3.246219e-01 0.000000e+00
1.540939e+00 2.927754e-01 0.000000e+00
1.597000e+00 3.246219e-01 0.000000e+00
1.567388e+00 2.381217e-01 0.000000e+00
1.626279e+00 2.635069e-01 0.000000e+00
1.567388e+00 2.381217e-01 0.000000e+00
1.626279e+00 2.635069e-01 0.000000e+00
1.588000e+00 1.808196e-01 0.000000e+00
1.648982e+00 1.997877e-01 0.000000e+00
1.588000e+00 1.808196e-01 0.000000e+00
1.648982e+00 1.997877e-01 0.000000e+00
1.602737e+00 1.215908e-01 0.000000e+00
1.665154e+00 1.341969e-01 0.000000e+00
1.602737e+00 1.215908e-01 0.000000e+00
1.665154e+00 1.341969e-01 0.000000e+00
1.611585e+00 6.110541e-02 0.000000e+00
1.674839e+00 6.739568e-02 0.000000e+00
1.611585e+00 6.110541e-02 0.000000e+00
1.674839e+00 6.739568e-02 0.000000e+00
1.614534e+00 7.905710e-12 0.000000e+00
1.678064e+00 8.216790e-12 0.000000e+00
</DataArray>
</Points>
<Cells>
<DataArray type="Int32" Name="connectivity" format="ascii">
0 1 3 2
4 5 7 6
8 9 11 10
12 13 15 14
16 17 19 18
20 21 23 22
24 25 27 26
28 29 31 30
32 33 35 34
36 37 39 38
40 41 43 42
44 45 47 46
48 49 51 50
52 53 55 54
56 57 59 58
60 61 63 62
64 65 67 66
68 69 71 70
72 73 75 74
76 77 79 78
80 81 83 82
84 85 87 86
88 89 91 90
92 93 95 94
96 97 99 98
100 101 103 102
104 105 107 106
108 109 111 110
112 113 115 114
116 117 119 118
</DataArray>
<DataArray type="Int32" Name="offsets" format="ascii">
4
8
12
16
20
24
28
32
36
40
44
48
52
56
60
64
68
72
76
80
84
88
92
96
100
104
108
112
116
120
</DataArray>
<DataArray type="UInt8" Name="types" format="ascii">
9
9
9
9
9
9
9
9
9
9
9
9
9
9
9
9
9
9
9
9
9
9
9
9
9
9
9
9
9
9
</DataArray>
</Cells>
<PointData>
<DataArray type="Float32" Name="V1" format="ascii">
4.797643e+01
-4.613008e-01
4.803154e+01
-4.061911e-01
4.812205e+01
-4.642229e-01
4.827646e+01
-3.098117e-01
4.846012e+01
-4.287546e-01
4.872189e+01
-1.669805e-01
4.899811e+01
-3.483300e-01
4.936999e+01
2.355160e-02
4.974169e+01
-2.219715e-01
5.022799e+01
2.643311e-01
5.069878e+01
-4.774495e-02
5.130541e+01
5.588810e-01
5.187938e+01
1.773873e-01
5.261401e+01
9.120170e-01
5.329527e+01
4.580219e-01
5.416769e+01
1.330438e+00
5.495927e+01
8.011976e-01
5.598188e+01
1.823799e+00
5.688365e+01
1.218063e+00
5.807229e+01
2.406696e+00
5.907670e+01
1.727017e+00
6.045205e+01
3.102371e+00
6.153576e+01
2.359766e+00
6.312574e+01
3.949749e+00
6.423329e+01
3.173153e+00
6.607708e+01
5.016944e+00
6.708952e+01
4.272792e+00
6.924396e+01
6.427223e+00
6.991982e+01
5.861842e+00
7.246724e+01
8.409258e+00
7.233589e+01
8.344967e+00
7.538942e+01
1.139850e+01
7.355610e+01
1.255128e+01
7.730826e+01
1.630344e+01
7.152704e+01
2.116175e+01
7.714672e+01
2.678143e+01
7.077929e+01
3.255233e+01
7.529261e+01
3.706566e+01
7.309656e+01
3.826544e+01
7.713165e+01
4.230053e+01
7.732039e+01
4.216078e+01
8.121699e+01
4.605738e+01
8.250391e+01
4.508643e+01
8.619907e+01
4.878158e+01
8.795851e+01
4.740960e+01
9.134763e+01
5.079871e+01
9.323138e+01
4.931379e+01
9.623549e+01
5.231790e+01
9.804108e+01
5.089483e+01
1.006125e+02
5.346623e+01
1.022197e+02
5.220549e+01
1.043335e+02
5.431934e+01
1.056715e+02
5.327613e+01
1.073172e+02
5.492181e+01
1.083448e+02
5.412499e+01
1.095194e+02
5.529956e+01
1.102140e+02
5.476330e+01
1.109179e+02
5.546722e+01
1.112677e+02
5.519791e+01
1.115022e+02
5.543237e+01
</DataArray>
<DataArray type="Float32" Name="V2" format="ascii">
5.135435e-01
5.900000e-01
5.164398e-01
5.927445e-01
5.164398e-01
5.927445e-01
5.250692e-01
6.009603e-01
5.250692e-01
6.009603e-01
5.393891e-01
6.145935e-01
5.393891e-01
6.145935e-01
5.593054e-01
6.335551e-01
5.593054e-01
6.335551e-01
5.846868e-01
6.577206e-01
5.846868e-01
6.577206e-01
6.153656e-01
6.869311e-01
6.153656e-01
6.869311e-01
6.511380e-01
7.209935e-01
6.511380e-01
7.209935e-01
6.917645e-01
7.596824e-01
6.917645e-01
7.596824e-01
7.369709e-01
8.027408e-01
7.369709e-01
8.027408e-01
7.864484e-01
8.498833e-01
7.864484e-01
8.498833e-01
8.398533e-01
9.008000e-01
8.398533e-01
9.008000e-01
8.968055e-01
9.551630e-01
8.968055e-01
9.551630e-01
9.568833e-01
1.012639e+00
9.568833e-01
1.012639e+00
1.019612e+00
1.072911e+00
1.019612e+00
1.072911e+00
1.084439e+00
1.135713e+00
1.084439e+00
1.135713e+00
1.150666e+00
1.200874e+00
1.150666e+00
1.200874e+00
1.217240e+00
1.268309e+00
1.217240e+00
1.268309e+00
1.283193e+00
1.336441e+00
1.283193e+00
1.336441e+00
1.343358e+00
1.397021e+00
1.343358e+00
1.397021e+00
1.395625e+00
1.451044e+00
1.395625e+00
1.451044e+00
1.440950e+00
1.498399e+00
1.440950e+00
1.498399e+00
1.479967e+00
1.539206e+00
1.479967e+00
1.539206e+00
1.513220e+00
1.573864e+00
1.513220e+00
1.573864e+00
1.541172e+00
1.602845e+00
1.541172e+00
1.602845e+00
1.564208e+00
1.626602e+00
1.564208e+00
1.626602e+00
1.582646e+00
1.645527e+00
1.582646e+00
1.645527e+00
1.596735e+00
1.659934e+00
1.596735e+00
1.659934e+00
1.606667e+00
1.670060e+00
1.606667e+00
1.670060e+00
1.612574e+00
1.676071e+00
1.612574e+00
1.676071e+00
1.614534e+00
1.678064e+00
</DataArray>
<DataArray type="Float32" Name="V3" format="ascii">
0.000000e+00
0.000000e+00
4.098150e-02
3.691937e-02
4.098150e-02
3.691937e-02
8.146377e-02
7.335941e-02
8.146377e-02
7.335941e-02
1.209470e-01
1.088435e-01
1.209470e-01
1.088435e-01
1.589383e-01
1.428992e-01
1.589383e-01
1.428992e-01
1.949522e-01
1.750619e-01
1.949522e-01
1.750619e-01
2.285131e-01
2.048763e-01
2.285131e-01
2.048763e-01
2.591576e-01
2.318997e-01
2.591576e-01
2.318997e-01
2.864368e-01
2.557044e-01
2.864368e-01
2.557044e-01
3.099185e-01
2.758808e-01
3.099185e-01
2.758808e-01
3.291880e-01
2.920411e-01
3.291880e-01
2.920411e-01
3.438496e-01
3.038240e-01
3.438496e-01
3.038240e-01
3.535264e-01
3.109012e-01
3.535264e-01
3.109012e-01
3.578573e-01
3.129862e-01
3.578573e-01
3.129862e-01
3.564927e-01
3.098477e-01
3.564927e-01
3.098477e-01
3.490821e-01
3.013267e-01
3.490821e-01
3.013267e-01
3.352571e-01
2.873485e-01
3.352571e-01
2.873485e-01
3.146476e-01
2.678682e-01
3.146476e-01
2.678682e-01
2.872256e-01
2.417013e-01
2.872256e-01
2.417013e-01
2.597520e-01
2.168765e-01
2.597520e-01
2.168765e-01
2.339538e-01
1.951611e-01
2.339538e-01
1.951611e-01
2.093412e-01
1.752748e-01
2.093412e-01
1.752748e-01
1.855244e-01
1.562937e-01
1.855244e-01
1.562937e-01
1.621785e-01
1.376002e-01
1.621785e-01
1.376002e-01
1.390656e-01
1.188244e-01
1.390656e-01
1.188244e-01
1.160250e-01
9.977349e-02
1.160250e-01
9.977349e-02
9.296021e-02
8.037381e-02
9.296021e-02
8.037381e-02
6.982442e-02
6.062960e-02
6.982442e-02
6.062960e-02
4.660695e-02
4.059424e-02
4.660695e-02
4.059424e-02
2.332216e-02
2.035099e-02
2.332216e-02
2.035099e-02
0.000000e+00
0.000000e+00
</DataArray>
<DataArray type="Float32" Name="V4" format="ascii">
8.500000e-01
1.000000e+00
8.500000e-01
1.000000e+00
8.500000e-01
1.000000e+00
8.500000e-01
1.000000e+00
8.500000e-01
1.000000e+00
8.500000e-01
1.000000e+00
8.500000e-01
1.000000e+00
8.500000e-01
1.000000e+00
8.500000e-01
1.000000e+00
8.500000e-01
1.000000e+00
8.500000e-01
1.000000e+00
8.500000e-01
1.000000e+00
8.500000e-01
1.000000e+00
8.500000e-01
1.000000e+00
8.500000e-01
1.000000e+00
8.500000e-01
1.000000e+00
8.500000e-01
1.000000e+00
8.500000e-01
1.000000e+00
8.500000e-01
1.000000e+00
8.500000e-01
1.000000e+00
8.500000e-01
1.000000e+00
8.500000e-01
1.000000e+00
8.500000e-01
1.000000e+00
8.500000e-01
1.000000e+00
8.500000e-01
1.000000e+00
8.500000e-01
1.000000e+00
8.500000e-01
1.000000e+00
8.500000e-01
1.000000e+00
8.500000e-01
1.000000e+00
8.500000e-01
1.000000e+00
8.500000e-01
1.000000e+00
8.500000e-01
1.000000e+00
8.500000e-01
1.000000e+00
8.500000e-01
1.000000e+00
8.500000e-01
1.000000e+00
8.500000e-01
1.000000e+00
8.500000e-01
1.000000e+00
8.500000e-01
1.000000e+00
8.500000e-01
1.000000e+00
8.500000e-01
1.000000e+00
8.500000e-01
1.000000e+00
8.500000e-01
1.000000e+00
8.500000e-01
1.000000e+00
8.500000e-01
1.000000e+00
8.500000e-01
1.000000e+00
8.500000e-01
1.000000e+00
8.500000e-01
1.000000e+00
8.500000e-01
1.000000e+00
8.500000e-01
1.000000e+00
8.500000e-01
1.000000e+00
8.500000e-01
1.000000e+00
8.500000e-01
1.000000e+00
8.500000e-01
1.000000e+00
8.500000e-01
1.000000e+00
8.500000e-01
1.000000e+00
8.500000e-01
1.000000e+00
8.500000e-01
1.000000e+00
8.500000e-01
1.000000e+00
8.500000e-01
1.000000e+00
8.500000e-01
1.000000e+00
</DataArray>
<DataArray type="Float32" Name="V5" format="ascii">
0.000000e+00
0.000000e+00
5.235988e-02
5.235988e-02
5.235988e-02
5.235988e-02
1.047198e-01
1.047198e-01
1.047198e-01
1.047198e-01
1.570796e-01
1.570796e-01
1.570796e-01
1.570796e-01
2.094395e-01
2.094395e-01
2.094395e-01
2.094395e-01
2.617994e-01
2.617994e-01
2.617994e-01
2.617994e-01
3.141593e-01
3.141593e-01
3.141593e-01
3.141593e-01
3.665191e-01
3.665191e-01
3.665191e-01
3.665191e-01
4.188790e-01
4.188790e-01
4.188790e-01
4.188790e-01
4.712389e-01
4.712389e-01
4.712389e-01
4.712389e-01
5.235988e-01
5.235988e-01
5.235988e-01
5.235988e-01
5.759587e-01
5.759587e-01
5.759587e-01
5.759587e-01
6.283185e-01
6.283185e-01
6.283185e-01
6.283185e-01
6.806784e-01
6.806784e-01
6.806784e-01
6.806784e-01
7.330383e-01
7.330383e-01
7.330383e-01
7.330383e-01
7.853982e-01
7.853982e-01
7.853982e-01
7.853982e-01
8.377580e-01
8.377580e-01
8.377580e-01
8.377580e-01
8.901179e-01
8.901179e-01
8.901179e-01
8.901179e-01
9.424778e-01
9.424778e-01
9.424778e-01
9.424778e-01
9.948377e-01
9.948377e-01
9.948377e-01
9.948377e-01
1.047198e+00
1.047198e+00
1.047198e+00
1.047198e+00
1.099557e+00
1.099557e+00
1.099557e+00
1.099557e+00
1.151917e+00
1.151917e+00
1.151917e+00
1.151917e+00
1.204277e+00
1.204277e+00
1.204277e+00
1.204277e+00
1.256637e+00
1.256637e+00
1.256637e+00
1.256637e+00
1.308997e+00
1.308997e+00
1.308997e+00
1.308997e+00
1.361357e+00
1.361357e+00
1.361357e+00
1.361357e+00
1.413717e+00
1.413717e+00
1.413717e+00
1.413717e+00
1.466077e+00
1.466077e+00
1.466077e+00
1.466077e+00
1.518436e+00
1.518436e+00
1.518436e+00
1.518436e+00
1.570796e+00
1.570796e+00
</DataArray>
</PointData>
</Piece></UnstructuredGrid>
</VTKFile>
