<?xml version="1.0"?>
<VTKFile type="UnstructuredGrid" version="0.1" byte_order="LittleEndian" compressor="vtkZLibDataCompressor">
<UnstructuredGrid>
<Piece NumberOfPoints="120" NumberOfCells="30">
<Points>
<DataArray type="Float32" NumberOfComponents="3" format="ascii">
0.000000e+00 3.607261e-01 0.000000e+00
0.000000e+00 3.910000e-01 0.000000e+00
1.080252e-01 3.607760e-01 0.000000e+00
1.080178e-01 3.910000e-01 0.000000e+00
1.080252e-01 3.607760e-01 0.000000e+00
1.080178e-01 3.910000e-01 0.000000e+00
2.160428e-01 3.608134e-01 0.000000e+00
2.160289e-01 3.910000e-01 0.000000e+00
2.160428e-01 3.608134e-01 0.000000e+00
2.160289e-01 3.910000e-01 0.000000e+00
3.240391e-01 3.608731e-01 0.000000e+00
3.240182e-01 3.910000e-01 0.000000e+00
3.240391e-01 3.608731e-01 0.000000e+00
3.240182e-01 3.910000e-01 0.000000e+00
4.320034e-01 3.609563e-01 0.000000e+00
4.319751e-01 3.910000e-01 0.000000e+00
4.320034e-01 3.609563e-01 0.000000e+00
4.319751e-01 3.910000e-01 0.000000e+00
5.399246e-01 3.610630e-01 0.000000e+00
5.398884e-01 3.910000e-01 0.000000e+00
5.399246e-01 3.610630e-01 0.000000e+00
5.398884e-01 3.910000e-01 0.000000e+00
6.477912e-01 3.611929e-01 0.000000e+00
6.477463e-01 3.910000e-01 0.000000e+00
6.477912e-01 3.611929e-01 0.000000e+00
6.477463e-01 3.910000e-01 0.000000e+00
7.555909e-01 3.613457e-01 0.000000e+00
7.555365e-01 3.910000e-01 0.000000e+00
7.555909e-01 3.613457e-01 0.000000e+00
7.555365e-01 3.910000e-01 0.000000e+00
8.633108e-01 3.615210e-01 0.000000e+00
8.632458e-01 3.910000e-01 0.000000e+00
8.633108e-01 3.615210e-01 0.000000e+00
8.632458e-01 3.910000e-01 0.000000e+00
9.709371e-01 3.617185e-01 0.000000e+00
9.708603e-01 3.910000e-01 0.000000e+00
9.709371e-01 3.617185e-01 0.000000e+00
9.708603e-01 3.910000e-01 0.000000e+00
1.078455e+00 3.619376e-01 0.000000e+00
1.078365e+00 3.910000e-01 0.000000e+00
1.078455e+00 3.619376e-01 0.000000e+00
1.078365e+00 3.910000e-01 0.000000e+00
1.185848e+00 3.621778e-01 0.000000e+00
1.185744e+00 3.910000e-01 0.000000e+00
1.185848e+00 3.621778e-01 0.000000e+00
1.185744e+00 3.910000e-01 0.000000e+00
1.293100e+00 3.624386e-01 0.000000e+00
1.292979e+00 3.910000e-01 0.000000e+00
1.293100e+00 3.624386e-01 0.000000e+00
1.292979e+00 3.910000e-01 0.000000e+00
1.400191e+00 3.627192e-01 0.000000e+00
1.400053e+00 3.910000e-01 0.000000e+00
1.400191e+00 3.627192e-01 0.000000e+00
1.400053e+00 3.910000e-01 0.000000e+00
1.507100e+00 3.630188e-01 0.000000e+00
1.506944e+00 3.910000e-01 0.000000e+00
1.507100e+00 3.630188e-01 0.000000e+00
1.506944e+00 3.910000e-01 0.000000e+00
1.613804e+00 3.633364e-01 0.000000e+00
1.613633e+00 3.910000e-01 0.000000e+00
1.613804e+00 3.633364e-01 0.000000e+00
1.613633e+00 3.910000e-01 0.000000e+00
1.720277e+00 3.636704e-01 0.000000e+00
1.720098e+00 3.910000e-01 0.000000e+00
1.720277e+00 3.636704e-01 0.000000e+00
1.720098e+00 3.910000e-01 0.000000e+00
1.826488e+00 3.640186e-01 0.000000e+00
1.826316e+00 3.910000e-01 0.000000e+00
1.826488e+00 3.640186e-01 0.000000e+00
1.826316e+00 3.910000e-01 0.000000e+00
1.932402e+00 3.643775e-01 0.000000e+00
1.932270e+00 3.910000e-01 0.000000e+00
1.932402e+00 3.643775e-01 0.000000e+00
1.932270e+00 3.910000e-01 0.000000e+00
2.037974e+00 3.647423e-01 0.000000e+00
2.037946e+00 3.910000e-01 0.000000e+00
2.037974e+00 3.647423e-01 0.000000e+00
2.037946e+00 3.910000e-01 0.000000e+00
2.143149e+00 3.651087e-01 0.000000e+00
2.143353e+00 3.910000e-01 0.000000e+00
2.143149e+00 3.651087e-01 0.000000e+00
2.143353e+00 3.910000e-01 0.000000e+00
2.247848e+00 3.654797e-01 0.000000e+00
2.248545e+00 3.910000e-01 0.000000e+00
2.247848e+00 3.654797e-01 0.000000e+00
2.248545e+00 3.910000e-01 0.000000e+00
2.351955e+00 3.658853e-01 0.000000e+00
2.353661e+00 3.910000e-01 0.000000e+00
2.351955e+00 3.658853e-01 0.000000e+00
2.353661e+00 3.910000e-01 0.000000e+00
2.455258e+00 3.664171e-01 0.000000e+00
2.458969e+00 3.910000e-01 0.000000e+00
2.455258e+00 3.664171e-01 0.000000e+00
2.458969e+00 3.910000e-01 0.000000e+00
2.557540e+00 3.673057e-01 0.000000e+00
2.565025e+00 3.910000e-01 0.000000e+00
2.557540e+00 3.673057e-01 0.000000e+00
2.565025e+00 3.910000e-01 0.000000e+00
2.662677e+00 3.624415e-01 0.000000e+00
2.673411e+00 3.835279e-01 0.000000e+00
2.662677e+00 3.624415e-01 0.000000e+00
2.673411e+00 3.835279e-01 0.000000e+00
2.754021e+00 3.256377e-01 0.000000e+00
2.767042e+00 3.440680e-01 0.000000e+00
2.754021e+00 3.256377e-01 0.000000e+00
2.767042e+00 3.440680e-01 0.000000e+00
2.828054e+00 2.643042e-01 0.000000e+00
2.844444e+00 2.794424e-01 0.000000e+00
2.828054e+00 2.643042e-01 0.000000e+00
2.844444e+00 2.794424e-01 0.000000e+00
2.882227e+00 1.856030e-01 0.000000e+00
2.901773e+00 1.963907e-01 0.000000e+00
2.882227e+00 1.856030e-01 0.000000e+00
2.901773e+00 1.963907e-01 0.000000e+00
2.914966e+00 9.568032e-02 0.000000e+00
2.936514e+00 1.013131e-01 0.000000e+00
2.914966e+00 9.568032e-02 0.000000e+00
2.936514e+00 1.013131e-01 0.000000e+00
2.925933e+00 1.432709e-11 0.000000e+00
2.948091e+00 1.443559e-11 0.000000e+00
</DataArray>
</Points>
<Cells>
<DataArray type="Int32" Name="connectivity" format="ascii">
0 1 3 2
4 5 7 6
8 9 11 10
12 13 15 14
16 17 19 18
20 21 23 22
24 25 27 26
28 29 31 30
32 33 35 34
36 37 39 38
40 41 43 42
44 45 47 46
48 49 51 50
52 53 55 54
56 57 59 58
60 61 63 62
64 65 67 66
68 69 71 70
72 73 75 74
76 77 79 78
80 81 83 82
84 85 87 86
88 89 91 90
92 93 95 94
96 97 99 98
100 101 103 102
104 105 107 106
108 109 111 110
112 113 115 114
116 117 119 118
</DataArray>
<DataArray type="Int32" Name="offsets" format="ascii">
4
8
12
16
20
24
28
32
36
40
44
48
52
56
60
64
68
72
76
80
84
88
92
96
100
104
108
112
116
120
</DataArray>
<DataArray type="UInt8" Name="types" format="ascii">
9
9
9
9
9
9
9
9
9
9
9
9
9
9
9
9
9
9
9
9
9
9
9
9
9
9
9
9
9
9
</DataArray>
</Cells>
<PointData>
<DataArray type="Float32" Name="V1" format="ascii">
1.700530e+03
2.755645e+02
1.702289e+03
2.773229e+02
1.704431e+03
2.756782e+02
1.709218e+03
2.804652e+02
1.713674e+03
2.773526e+02
1.721615e+03
2.852941e+02
1.728451e+03
2.806655e+02
1.739621e+03
2.918346e+02
1.748913e+03
2.856449e+02
1.763442e+03
3.001732e+02
1.775291e+03
2.923483e+02
1.793353e+03
3.104108e+02
1.807889e+03
3.008566e+02
1.829705e+03
3.226724e+02
1.847094e+03
3.112745e+02
1.872932e+03
3.371125e+02
1.893380e+03
3.237326e+02
1.923567e+03
3.539194e+02
1.947321e+03
3.383911e+02
1.982251e+03
3.733203e+02
2.009609e+03
3.554450e+02
2.049753e+03
3.955894e+02
2.081065e+03
3.751300e+02
2.126992e+03
4.210571e+02
2.162666e+03
3.977307e+02
2.215058e+03
4.501233e+02
2.255565e+03
4.235922e+02
2.315249e+03
4.832763e+02
2.361119e+03
4.531362e+02
2.429102e+03
5.211192e+02
2.480913e+03
4.868848e+02
2.558438e+03
5.644102e+02
2.616781e+03
5.254990e+02
2.705405e+03
6.141236e+02
2.770813e+03
5.698449e+02
2.872513e+03
6.715448e+02
2.945327e+03
6.211206e+02
3.062624e+03
7.384182e+02
3.142770e+03
6.811279e+02
3.278820e+03
8.171779e+02
3.365457e+03
7.529121e+02
3.523884e+03
9.113388e+02
3.614855e+03
8.423092e+02
3.798873e+03
1.026327e+03
3.889428e+03
9.613850e+02
4.099876e+03
1.171833e+03
4.179402e+03
1.133217e+03
4.413979e+03
1.367794e+03
4.480123e+03
1.383952e+03
4.743050e+03
1.646878e+03
4.788138e+03
1.677508e+03
5.061383e+03
1.950752e+03
5.175241e+03
1.896101e+03
5.455746e+03
2.176606e+03
5.575116e+03
2.092670e+03
5.803230e+03
2.320784e+03
5.921414e+03
2.238516e+03
6.061596e+03
2.378698e+03
6.144569e+03
2.324523e+03
6.190841e+03
2.370795e+03
</DataArray>
<DataArray type="Float32" Name="V2" format="ascii">
3.607261e-01
3.910000e-01
3.659352e-01
3.961174e-01
3.659352e-01
3.961174e-01
3.814195e-01
4.114392e-01
3.814195e-01
4.114392e-01
4.071210e-01
4.368738e-01
4.071210e-01
4.368738e-01
4.428871e-01
4.722684e-01
4.428871e-01
4.722684e-01
4.885028e-01
5.174104e-01
4.885028e-01
5.174104e-01
5.436933e-01
5.720277e-01
5.436933e-01
5.720277e-01
6.081248e-01
6.357900e-01
6.081248e-01
6.357900e-01
6.814060e-01
7.083100e-01
6.814060e-01
7.083100e-01
7.630898e-01
7.891449e-01
7.630898e-01
7.891449e-01
8.526746e-01
8.777984e-01
8.526746e-01
8.777984e-01
9.496072e-01
9.737225e-01
9.496072e-01
9.737225e-01
1.053284e+00
1.076320e+00
1.053284e+00
1.076320e+00
1.163054e+00
1.184946e+00
1.163054e+00
1.184946e+00
1.278222e+00
1.298912e+00
1.278222e+00
1.298912e+00
1.398049e+00
1.417490e+00
1.398049e+00
1.417490e+00
1.521758e+00
1.539912e+00
1.521758e+00
1.539912e+00
1.648532e+00
1.665379e+00
1.648532e+00
1.665379e+00
1.777522e+00
1.793063e+00
1.777522e+00
1.793063e+00
1.907842e+00
1.922119e+00
1.907842e+00
1.922119e+00
2.038576e+00
2.051699e+00
2.038576e+00
2.051699e+00
2.168772e+00
2.180979e+00
2.168772e+00
2.180979e+00
2.297437e+00
2.309211e+00
2.297437e+00
2.309211e+00
2.423493e+00
2.435767e+00
2.423493e+00
2.435767e+00
2.545869e+00
2.560310e+00
2.545869e+00
2.560310e+00
2.665755e+00
2.681581e+00
2.665755e+00
2.681581e+00
2.761543e+00
2.778112e+00
2.761543e+00
2.778112e+00
2.834582e+00
2.853139e+00
2.834582e+00
2.853139e+00
2.885838e+00
2.906406e+00
2.885838e+00
2.906406e+00
2.915979e+00
2.937792e+00
2.915979e+00
2.937792e+00
2.925933e+00
2.948091e+00
</DataArray>
<DataArray type="Float32" Name="V3" format="ascii">
0.000000e+00
0.000000e+00
8.899557e-02
8.740639e-02
8.899557e-02
8.740639e-02
1.771440e-01
1.739749e-01
1.771440e-01
1.739749e-01
2.635966e-01
2.588631e-01
2.635966e-01
2.588631e-01
3.475160e-01
3.412419e-01
3.475160e-01
3.412419e-01
4.280772e-01
4.202939e-01
4.280772e-01
4.202939e-01
5.044713e-01
4.952177e-01
5.044713e-01
4.952177e-01
5.759102e-01
5.652322e-01
5.759102e-01
5.652322e-01
6.416298e-01
6.295803e-01
6.416298e-01
6.295803e-01
7.008945e-01
6.875326e-01
7.008945e-01
6.875326e-01
7.530005e-01
7.383915e-01
7.530005e-01
7.383915e-01
7.972799e-01
7.814945e-01
7.972799e-01
7.814945e-01
8.331037e-01
8.162181e-01
8.331037e-01
8.162181e-01
8.598859e-01
8.419810e-01
8.598859e-01
8.419810e-01
8.770863e-01
8.582479e-01
8.770863e-01
8.582479e-01
8.842139e-01
8.645324e-01
8.842139e-01
8.645324e-01
8.808299e-01
8.604005e-01
8.808299e-01
8.604005e-01
8.665506e-01
8.454740e-01
8.665506e-01
8.454740e-01
8.410498e-01
8.194339e-01
8.410498e-01
8.194339e-01
8.040617e-01
7.820247e-01
8.040617e-01
7.820247e-01
7.553809e-01
7.330608e-01
7.553809e-01
7.330608e-01
6.948570e-01
6.724345e-01
6.948570e-01
6.724345e-01
6.223735e-01
6.001240e-01
6.223735e-01
6.001240e-01
5.378060e-01
5.161856e-01
5.378060e-01
5.161856e-01
4.409948e-01
4.207734e-01
4.409948e-01
4.207734e-01
3.390598e-01
3.214702e-01
3.390598e-01
3.214702e-01
2.540715e-01
2.387511e-01
2.540715e-01
2.387511e-01
1.813550e-01
1.689671e-01
1.813550e-01
1.689671e-01
1.166885e-01
1.080031e-01
1.166885e-01
1.080031e-01
5.700837e-02
5.251100e-02
5.700837e-02
5.251100e-02
0.000000e+00
0.000000e+00
</DataArray>
<DataArray type="Float32" Name="V4" format="ascii">
8.500000e-01
1.000000e+00
8.500000e-01
1.000000e+00
8.500000e-01
1.000000e+00
8.500000e-01
1.000000e+00
8.500000e-01
1.000000e+00
8.500000e-01
1.000000e+00
8.500000e-01
1.000000e+00
8.500000e-01
1.000000e+00
8.500000e-01
1.000000e+00
8.500000e-01
1.000000e+00
8.500000e-01
1.000000e+00
8.500000e-01
1.000000e+00
8.500000e-01
1.000000e+00
8.500000e-01
1.000000e+00
8.500000e-01
1.000000e+00
8.500000e-01
1.000000e+00
8.500000e-01
1.000000e+00
8.500000e-01
1.000000e+00
8.500000e-01
1.000000e+00
8.500000e-01
1.000000e+00
8.500000e-01
1.000000e+00
8.500000e-01
1.000000e+00
8.500000e-01
1.000000e+00
8.500000e-01
1.000000e+00
8.500000e-01
1.000000e+00
8.500000e-01
1.000000e+00
8.500000e-01
1.000000e+00
8.500000e-01
1.000000e+00
8.500000e-01
1.000000e+00
8.500000e-01
1.000000e+00
8.500000e-01
1.000000e+00
8.500000e-01
1.000000e+00
8.500000e-01
1.000000e+00
8.500000e-01
1.000000e+00
8.500000e-01
1.000000e+00
8.500000e-01
1.000000e+00
8.500000e-01
1.000000e+00
8.500000e-01
1.000000e+00
8.500000e-01
1.000000e+00
8.500000e-01
1.000000e+00
8.500000e-01
1.000000e+00
8.500000e-01
1.000000e+00
8.500000e-01
1.000000e+00
8.500000e-01
1.000000e+00
8.500000e-01
1.000000e+00
8.500000e-01
1.000000e+00
8.500000e-01
1.000000e+00
8.500000e-01
1.000000e+00
8.500000e-01
1.000000e+00
8.500000e-01
1.000000e+00
8.500000e-01
1.000000e+00
8.500000e-01
1.000000e+00
8.500000e-01
1.000000e+00
8.500000e-01
1.000000e+00
8.500000e-01
1.000000e+00
8.500000e-01
1.000000e+00
8.500000e-01
1.000000e+00
8.500000e-01
1.000000e+00
8.500000e-01
1.000000e+00
8.500000e-01
1.000000e+00
</DataArray>
<DataArray type="Float32" Name="V5" format="ascii">
0.000000e+00
0.000000e+00
5.235988e-02
5.235988e-02
5.235988e-02
5.235988e-02
1.047198e-01
1.047198e-01
1.047198e-01
1.047198e-01
1.570796e-01
1.570796e-01
1.570796e-01
1.570796e-01
2.094395e-01
2.094395e-01
2.094395e-01
2.094395e-01
2.617994e-01
2.617994e-01
2.617994e-01
2.617994e-01
3.141593e-01
3.141593e-01
3.141593e-01
3.141593e-01
3.665191e-01
3.665191e-01
3.665191e-01
3.665191e-01
4.188790e-01
4.188790e-01
4.188790e-01
4.188790e-01
4.712389e-01
4.712389e-01
4.712389e-01
4.712389e-01
5.235988e-01
5.235988e-01
5.235988e-01
5.235988e-01
5.759587e-01
5.759587e-01
5.759587e-01
5.759587e-01
6.283185e-01
6.283185e-01
6.283185e-01
6.283185e-01
6.806784e-01
6.806784e-01
6.806784e-01
6.806784e-01
7.330383e-01
7.330383e-01
7.330383e-01
7.330383e-01
7.853982e-01
7.853982e-01
7.853982e-01
7.853982e-01
8.377580e-01
8.377580e-01
8.377580e-01
8.377580e-01
8.901179e-01
8.901179e-01
8.901179e-01
8.901179e-01
9.424778e-01
9.424778e-01
9.424778e-01
9.424778e-01
9.948377e-01
9.948377e-01
9.948377e-01
9.948377e-01
1.047198e+00
1.047198e+00
1.047198e+00
1.047198e+00
1.099557e+00
1.099557e+00
1.099557e+00
1.099557e+00
1.151917e+00
1.151917e+00
1.151917e+00
1.151917e+00
1.204277e+00
1.204277e+00
1.204277e+00
1.204277e+00
1.256637e+00
1.256637e+00
1.256637e+00
1.256637e+00
1.308997e+00
1.308997e+00
1.308997e+00
1.308997e+00
1.361357e+00
1.361357e+00
1.361357e+00
1.361357e+00
1.413717e+00
1.413717e+00
1.413717e+00
1.413717e+00
1.466077e+00
1.466077e+00
1.466077e+00
1.466077e+00
1.518436e+00
1.518436e+00
1.518436e+00
1.518436e+00
1.570796e+00
1.570796e+00
</DataArray>
</PointData>
</Piece></UnstructuredGrid>
</VTKFile>
