<?xml version="1.0"?>
<VTKFile type="UnstructuredGrid" version="0.1" byte_order="LittleEndian" compressor="vtkZLibDataCompressor">
<UnstructuredGrid>
<Piece NumberOfPoints="120" NumberOfCells="30">
<Points>
<DataArray type="Float32" NumberOfComponents="3" format="ascii">
0.000000e+00 4.034650e-01 0.000000e+00
0.000000e+00 4.500000e-01 0.000000e+00
8.708397e-02 4.035055e-01 0.000000e+00
8.706940e-02 4.500000e-01 0.000000e+00
8.708397e-02 4.035055e-01 0.000000e+00
8.706940e-02 4.500000e-01 0.000000e+00
1.741589e-01 4.035579e-01 0.000000e+00
1.741291e-01 4.500000e-01 0.000000e+00
1.741589e-01 4.035579e-01 0.000000e+00
1.741291e-01 4.500000e-01 0.000000e+00
2.612112e-01 4.036445e-01 0.000000e+00
2.611664e-01 4.500000e-01 0.000000e+00
2.612112e-01 4.036445e-01 0.000000e+00
2.611664e-01 4.500000e-01 0.000000e+00
3.482296e-01 4.037654e-01 0.000000e+00
3.481697e-01 4.500000e-01 0.000000e+00
3.482296e-01 4.037654e-01 0.000000e+00
3.481697e-01 4.500000e-01 0.000000e+00
4.352025e-01 4.039204e-01 0.000000e+00
4.351275e-01 4.500000e-01 0.000000e+00
4.352025e-01 4.039204e-01 0.000000e+00
4.351275e-01 4.500000e-01 0.000000e+00
5.221176e-01 4.041089e-01 0.000000e+00
5.220275e-01 4.500000e-01 0.000000e+00
5.221176e-01 4.041089e-01 0.000000e+00
5.220275e-01 4.500000e-01 0.000000e+00
6.089620e-01 4.043305e-01 0.000000e+00
6.088570e-01 4.500000e-01 0.000000e+00
6.089620e-01 4.043305e-01 0.000000e+00
6.088570e-01 4.500000e-01 0.000000e+00
6.957223e-01 4.045844e-01 0.000000e+00
6.956025e-01 4.500000e-01 0.000000e+00
6.957223e-01 4.045844e-01 0.000000e+00
6.956025e-01 4.500000e-01 0.000000e+00
7.823839e-01 4.048699e-01 0.000000e+00
7.822498e-01 4.500000e-01 0.000000e+00
7.823839e-01 4.048699e-01 0.000000e+00
7.822498e-01 4.500000e-01 0.000000e+00
8.689313e-01 4.051862e-01 0.000000e+00
8.687842e-01 4.500000e-01 0.000000e+00
8.689313e-01 4.051862e-01 0.000000e+00
8.687842e-01 4.500000e-01 0.000000e+00
9.553476e-01 4.055323e-01 0.000000e+00
9.551899e-01 4.500000e-01 0.000000e+00
9.553476e-01 4.055323e-01 0.000000e+00
9.551899e-01 4.500000e-01 0.000000e+00
1.041614e+00 4.059071e-01 0.000000e+00
1.041451e+00 4.500000e-01 0.000000e+00
1.041614e+00 4.059071e-01 0.000000e+00
1.041451e+00 4.500000e-01 0.000000e+00
1.127711e+00 4.063093e-01 0.000000e+00
1.127551e+00 4.500000e-01 0.000000e+00
1.127711e+00 4.063093e-01 0.000000e+00
1.127551e+00 4.500000e-01 0.000000e+00
1.213613e+00 4.067372e-01 0.000000e+00
1.213474e+00 4.500000e-01 0.000000e+00
1.213613e+00 4.067372e-01 0.000000e+00
1.213474e+00 4.500000e-01 0.000000e+00
1.299294e+00 4.071883e-01 0.000000e+00
1.299208e+00 4.500000e-01 0.000000e+00
1.299294e+00 4.071883e-01 0.000000e+00
1.299208e+00 4.500000e-01 0.000000e+00
1.384718e+00 4.076590e-01 0.000000e+00
1.384745e+00 4.500000e-01 0.000000e+00
1.384718e+00 4.076590e-01 0.000000e+00
1.384745e+00 4.500000e-01 0.000000e+00
1.469841e+00 4.081431e-01 0.000000e+00
1.470092e+00 4.500000e-01 0.000000e+00
1.469841e+00 4.081431e-01 0.000000e+00
1.470092e+00 4.500000e-01 0.000000e+00
1.554599e+00 4.086310e-01 0.000000e+00
1.555279e+00 4.500000e-01 0.000000e+00
1.554599e+00 4.086310e-01 0.000000e+00
1.555279e+00 4.500000e-01 0.000000e+00
1.638897e+00 4.091101e-01 0.000000e+00
1.640391e+00 4.500000e-01 0.000000e+00
1.638897e+00 4.091101e-01 0.000000e+00
1.640391e+00 4.500000e-01 0.000000e+00
1.722579e+00 4.095757e-01 0.000000e+00
1.725611e+00 4.500000e-01 0.000000e+00
1.722579e+00 4.095757e-01 0.000000e+00
1.725611e+00 4.500000e-01 0.000000e+00
1.805354e+00 4.100674e-01 0.000000e+00
1.811295e+00 4.500000e-01 0.000000e+00
1.805354e+00 4.100674e-01 0.000000e+00
1.811295e+00 4.500000e-01 0.000000e+00
1.886690e+00 4.107169e-01 0.000000e+00
1.897993e+00 4.500000e-01 0.000000e+00
1.886690e+00 4.107169e-01 0.000000e+00
1.897993e+00 4.500000e-01 0.000000e+00
1.966370e+00 4.075297e-01 0.000000e+00
1.980970e+00 4.444514e-01 0.000000e+00
1.966370e+00 4.075297e-01 0.000000e+00
1.980970e+00 4.444514e-01 0.000000e+00
2.040563e+00 3.817193e-01 0.000000e+00
2.059690e+00 4.155170e-01 0.000000e+00
2.040563e+00 3.817193e-01 0.000000e+00
2.059690e+00 4.155170e-01 0.000000e+00
2.105548e+00 3.395747e-01 0.000000e+00
2.129727e+00 3.692357e-01 0.000000e+00
2.105548e+00 3.395747e-01 0.000000e+00
2.129727e+00 3.692357e-01 0.000000e+00
2.159720e+00 2.850806e-01 0.000000e+00
2.188445e+00 3.096024e-01 0.000000e+00
2.159720e+00 2.850806e-01 0.000000e+00
2.188445e+00 3.096024e-01 0.000000e+00
2.202374e+00 2.213803e-01 0.000000e+00
2.234680e+00 2.401140e-01 0.000000e+00
2.202374e+00 2.213803e-01 0.000000e+00
2.234680e+00 2.401140e-01 0.000000e+00
2.233098e+00 1.511035e-01 0.000000e+00
2.267914e+00 1.637108e-01 0.000000e+00
2.233098e+00 1.511035e-01 0.000000e+00
2.267914e+00 1.637108e-01 0.000000e+00
2.251625e+00 7.658852e-02 0.000000e+00
2.287913e+00 8.291910e-02 0.000000e+00
2.251625e+00 7.658852e-02 0.000000e+00
2.287913e+00 8.291910e-02 0.000000e+00
2.257814e+00 1.105559e-11 0.000000e+00
2.294586e+00 1.123565e-11 0.000000e+00
</DataArray>
</Points>
<Cells>
<DataArray type="Int32" Name="connectivity" format="ascii">
0 1 3 2
4 5 7 6
8 9 11 10
12 13 15 14
16 17 19 18
20 21 23 22
24 25 27 26
28 29 31 30
32 33 35 34
36 37 39 38
40 41 43 42
44 45 47 46
48 49 51 50
52 53 55 54
56 57 59 58
60 61 63 62
64 65 67 66
68 69 71 70
72 73 75 74
76 77 79 78
80 81 83 82
84 85 87 86
88 89 91 90
92 93 95 94
96 97 99 98
100 101 103 102
104 105 107 106
108 109 111 110
112 113 115 114
116 117 119 118
</DataArray>
<DataArray type="Int32" Name="offsets" format="ascii">
4
8
12
16
20
24
28
32
36
40
44
48
52
56
60
64
68
72
76
80
84
88
92
96
100
104
108
112
116
120
</DataArray>
<DataArray type="UInt8" Name="types" format="ascii">
9
9
9
9
9
9
9
9
9
9
9
9
9
9
9
9
9
9
9
9
9
9
9
9
9
9
9
9
9
9
</DataArray>
</Cells>
<PointData>
<DataArray type="Float32" Name="V1" format="ascii">
3.441530e+02
2.518878e+01
3.444974e+02
2.553323e+01
3.450102e+02
2.519106e+01
3.459938e+02
2.617464e+01
3.470316e+02
2.548954e+01
3.486871e+02
2.714508e+01
3.502585e+02
2.610783e+01
3.526015e+02
2.845091e+01
3.547241e+02
2.705143e+01
3.577824e+02
3.010970e+01
3.604790e+02
2.833192e+01
3.642893e+02
3.214218e+01
3.675898e+02
2.996556e+01
3.721987e+02
3.457446e+01
3.761399e+02
3.197358e+01
3.816053e+02
3.743900e+01
3.862319e+02
3.438297e+01
3.926247e+02
4.077570e+01
3.979896e+02
3.722756e+01
4.053956e+02
4.463354e+01
4.115600e+02
4.054968e+01
4.200834e+02
4.907303e+01
4.271160e+02
4.440263e+01
4.368831e+02
5.416969e+01
4.448577e+02
4.885474e+01
4.560228e+02
6.001985e+01
4.650122e+02
5.399587e+01
4.777662e+02
6.674991e+01
4.878282e+02
5.994880e+01
5.024118e+02
7.453235e+01
5.135615e+02
6.688960e+01
5.302855e+02
8.361365e+01
5.424399e+02
7.508572e+01
5.617183e+02
9.436415e+01
5.745900e+02
8.497160e+01
5.969850e+02
1.073666e+02
6.098906e+02
9.731045e+01
6.361507e+02
1.235706e+02
6.476918e+02
1.135703e+02
6.786771e+02
1.445556e+02
6.862607e+02
1.368373e+02
7.224456e+02
1.730221e+02
7.213091e+02
1.738907e+02
7.618350e+02
2.144167e+02
7.370157e+02
2.437091e+02
7.932094e+02
2.999027e+02
7.856891e+02
2.980007e+02
8.325729e+02
3.448845e+02
8.463022e+02
3.364297e+02
8.899792e+02
3.801067e+02
9.108385e+02
3.674490e+02
9.501186e+02
4.067291e+02
9.718948e+02
3.926287e+02
1.004879e+03
4.256133e+02
1.023534e+03
4.128790e+02
1.048423e+03
4.377681e+02
1.061699e+03
4.283877e+02
1.077154e+03
4.438429e+02
1.083993e+03
4.389194e+02
1.089229e+03
4.441558e+02
</DataArray>
<DataArray type="Float32" Name="V2" format="ascii">
4.034650e-01
4.500000e-01
4.075101e-01
4.539402e-01
4.075101e-01
4.539402e-01
4.195518e-01
4.657363e-01
4.195518e-01
4.657363e-01
4.395374e-01
4.853152e-01
4.395374e-01
4.853152e-01
4.673432e-01
5.125550e-01
4.673432e-01
5.125550e-01
5.027958e-01
5.472859e-01
5.027958e-01
5.472859e-01
5.456736e-01
5.892908e-01
5.456736e-01
5.892908e-01
5.957075e-01
6.383060e-01
5.957075e-01
6.383060e-01
6.525820e-01
6.940225e-01
6.525820e-01
6.940225e-01
7.159366e-01
7.560869e-01
7.159366e-01
7.560869e-01
7.853672e-01
8.241035e-01
7.853672e-01
8.241035e-01
8.604276e-01
8.976355e-01
8.604276e-01
8.976355e-01
9.406313e-01
9.762071e-01
9.406313e-01
9.762071e-01
1.025453e+00
1.059306e+00
1.025453e+00
1.059306e+00
1.114330e+00
1.146388e+00
1.114330e+00
1.146388e+00
1.206665e+00
1.236877e+00
1.206665e+00
1.236877e+00
1.301823e+00
1.330175e+00
1.301823e+00
1.330175e+00
1.399134e+00
1.425670e+00
1.399134e+00
1.425670e+00
1.497884e+00
1.522751e+00
1.497884e+00
1.522751e+00
1.597312e+00
1.620835e+00
1.597312e+00
1.620835e+00
1.696585e+00
1.719423e+00
1.696585e+00
1.719423e+00
1.794749e+00
1.818172e+00
1.794749e+00
1.818172e+00
1.890630e+00
1.916934e+00
1.890630e+00
1.916934e+00
1.981810e+00
2.008672e+00
1.981810e+00
2.008672e+00
2.058648e+00
2.087283e+00
2.058648e+00
2.087283e+00
2.121692e+00
2.152724e+00
2.121692e+00
2.152724e+00
2.171797e+00
2.204993e+00
2.171797e+00
2.204993e+00
2.209891e+00
2.244729e+00
2.209891e+00
2.244729e+00
2.236659e+00
2.272602e+00
2.236659e+00
2.272602e+00
2.252547e+00
2.289117e+00
2.252547e+00
2.289117e+00
2.257814e+00
2.294586e+00
</DataArray>
<DataArray type="Float32" Name="V3" format="ascii">
0.000000e+00
0.000000e+00
6.584678e-02
6.339890e-02
6.584678e-02
6.339890e-02
1.310215e-01
1.261374e-01
1.310215e-01
1.261374e-01
1.948513e-01
1.875555e-01
1.948513e-01
1.875555e-01
2.566724e-01
2.470011e-01
2.566724e-01
2.470011e-01
3.158310e-01
3.038323e-01
3.158310e-01
3.038323e-01
3.716868e-01
3.574200e-01
3.716868e-01
3.574200e-01
4.236160e-01
4.071514e-01
4.236160e-01
4.071514e-01
4.710147e-01
4.524330e-01
4.710147e-01
4.524330e-01
5.133021e-01
4.926940e-01
5.133021e-01
4.926940e-01
5.499235e-01
5.273892e-01
5.499235e-01
5.273892e-01
5.803531e-01
5.560021e-01
5.803531e-01
5.560021e-01
6.040974e-01
5.780481e-01
6.040974e-01
5.780481e-01
6.206970e-01
5.930773e-01
6.206970e-01
5.930773e-01
6.297299e-01
6.006782e-01
6.297299e-01
6.006782e-01
6.308137e-01
6.004807e-01
6.308137e-01
6.004807e-01
6.236075e-01
5.921604e-01
6.236075e-01
5.921604e-01
6.078141e-01
5.754432e-01
6.078141e-01
5.754432e-01
5.831809e-01
5.501126e-01
5.831809e-01
5.501126e-01
5.494988e-01
5.160190e-01
5.494988e-01
5.160190e-01
5.065865e-01
4.730939e-01
5.065865e-01
4.730939e-01
4.542410e-01
4.213579e-01
4.542410e-01
4.213579e-01
3.921772e-01
3.608877e-01
3.921772e-01
3.608877e-01
3.242223e-01
2.949851e-01
3.242223e-01
2.949851e-01
2.675319e-01
2.412990e-01
2.675319e-01
2.412990e-01
2.169519e-01
1.945596e-01
2.169519e-01
1.945596e-01
1.701802e-01
1.521666e-01
1.701802e-01
1.521666e-01
1.258725e-01
1.124232e-01
1.258725e-01
1.124232e-01
8.314659e-02
7.424759e-02
8.314659e-02
7.424759e-02
4.135738e-02
3.693464e-02
4.135738e-02
3.693464e-02
0.000000e+00
0.000000e+00
</DataArray>
<DataArray type="Float32" Name="V4" format="ascii">
8.500000e-01
1.000000e+00
8.500000e-01
1.000000e+00
8.500000e-01
1.000000e+00
8.500000e-01
1.000000e+00
8.500000e-01
1.000000e+00
8.500000e-01
1.000000e+00
8.500000e-01
1.000000e+00
8.500000e-01
1.000000e+00
8.500000e-01
1.000000e+00
8.500000e-01
1.000000e+00
8.500000e-01
1.000000e+00
8.500000e-01
1.000000e+00
8.500000e-01
1.000000e+00
8.500000e-01
1.000000e+00
8.500000e-01
1.000000e+00
8.500000e-01
1.000000e+00
8.500000e-01
1.000000e+00
8.500000e-01
1.000000e+00
8.500000e-01
1.000000e+00
8.500000e-01
1.000000e+00
8.500000e-01
1.000000e+00
8.500000e-01
1.000000e+00
8.500000e-01
1.000000e+00
8.500000e-01
1.000000e+00
8.500000e-01
1.000000e+00
8.500000e-01
1.000000e+00
8.500000e-01
1.000000e+00
8.500000e-01
1.000000e+00
8.500000e-01
1.000000e+00
8.500000e-01
1.000000e+00
8.500000e-01
1.000000e+00
8.500000e-01
1.000000e+00
8.500000e-01
1.000000e+00
8.500000e-01
1.000000e+00
8.500000e-01
1.000000e+00
8.500000e-01
1.000000e+00
8.500000e-01
1.000000e+00
8.500000e-01
1.000000e+00
8.500000e-01
1.000000e+00
8.500000e-01
1.000000e+00
8.500000e-01
1.000000e+00
8.500000e-01
1.000000e+00
8.500000e-01
1.000000e+00
8.500000e-01
1.000000e+00
8.500000e-01
1.000000e+00
8.500000e-01
1.000000e+00
8.500000e-01
1.000000e+00
8.500000e-01
1.000000e+00
8.500000e-01
1.000000e+00
8.500000e-01
1.000000e+00
8.500000e-01
1.000000e+00
8.500000e-01
1.000000e+00
8.500000e-01
1.000000e+00
8.500000e-01
1.000000e+00
8.500000e-01
1.000000e+00
8.500000e-01
1.000000e+00
8.500000e-01
1.000000e+00
8.500000e-01
1.000000e+00
8.500000e-01
1.000000e+00
8.500000e-01
1.000000e+00
</DataArray>
<DataArray type="Float32" Name="V5" format="ascii">
0.000000e+00
0.000000e+00
5.235988e-02
5.235988e-02
5.235988e-02
5.235988e-02
1.047198e-01
1.047198e-01
1.047198e-01
1.047198e-01
1.570796e-01
1.570796e-01
1.570796e-01
1.570796e-01
2.094395e-01
2.094395e-01
2.094395e-01
2.094395e-01
2.617994e-01
2.617994e-01
2.617994e-01
2.617994e-01
3.141593e-01
3.141593e-01
3.141593e-01
3.141593e-01
3.665191e-01
3.665191e-01
3.665191e-01
3.665191e-01
4.188790e-01
4.188790e-01
4.188790e-01
4.188790e-01
4.712389e-01
4.712389e-01
4.712389e-01
4.712389e-01
5.235988e-01
5.235988e-01
5.235988e-01
5.235988e-01
5.759587e-01
5.759587e-01
5.759587e-01
5.759587e-01
6.283185e-01
6.283185e-01
6.283185e-01
6.283185e-01
6.806784e-01
6.806784e-01
6.806784e-01
6.806784e-01
7.330383e-01
7.330383e-01
7.330383e-01
7.330383e-01
7.853982e-01
7.853982e-01
7.853982e-01
7.853982e-01
8.377580e-01
8.377580e-01
8.377580e-01
8.377580e-01
8.901179e-01
8.901179e-01
8.901179e-01
8.901179e-01
9.424778e-01
9.424778e-01
9.424778e-01
9.424778e-01
9.948377e-01
9.948377e-01
9.948377e-01
9.948377e-01
1.047198e+00
1.047198e+00
1.047198e+00
1.047198e+00
1.099557e+00
1.099557e+00
1.099557e+00
1.099557e+00
1.151917e+00
1.151917e+00
1.151917e+00
1.151917e+00
1.204277e+00
1.204277e+00
1.204277e+00
1.204277e+00
1.256637e+00
1.256637e+00
1.256637e+00
1.256637e+00
1.308997e+00
1.308997e+00
1.308997e+00
1.308997e+00
1.361357e+00
1.361357e+00
1.361357e+00
1.361357e+00
1.413717e+00
1.413717e+00
1.413717e+00
1.413717e+00
1.466077e+00
1.466077e+00
1.466077e+00
1.466077e+00
1.518436e+00
1.518436e+00
1.518436e+00
1.518436e+00
1.570796e+00
1.570796e+00
</DataArray>
</PointData>
</Piece></UnstructuredGrid>
</VTKFile>
