<?xml version="1.0"?>
<VTKFile type="UnstructuredGrid" version="0.1" byte_order="LittleEndian" compressor="vtkZLibDataCompressor">
<UnstructuredGrid>
<Piece NumberOfPoints="120" NumberOfCells="30">
<Points>
<DataArray type="Float32" NumberOfComponents="3" format="ascii">
0.000000e+00 8.126980e-01 0.000000e+00
0.000000e+00 9.200000e-01 0.000000e+00
5.738084e-02 8.127642e-01 0.000000e+00
5.731606e-02 9.200000e-01 0.000000e+00
5.738084e-02 8.127642e-01 0.000000e+00
5.731606e-02 9.200000e-01 0.000000e+00
1.147518e-01 8.129430e-01 0.000000e+00
1.146604e-01 9.200000e-01 0.000000e+00
1.147518e-01 8.129430e-01 0.000000e+00
1.146604e-01 9.200000e-01 0.000000e+00
1.720918e-01 8.132515e-01 0.000000e+00
1.720780e-01 9.200000e-01 0.000000e+00
1.720918e-01 8.132515e-01 0.000000e+00
1.720780e-01 9.200000e-01 0.000000e+00
2.293568e-01 8.137037e-01 0.000000e+00
2.296469e-01 9.200000e-01 0.000000e+00
2.293568e-01 8.137037e-01 0.000000e+00
2.296469e-01 9.200000e-01 0.000000e+00
2.864519e-01 8.143081e-01 0.000000e+00
2.875024e-01 9.200000e-01 0.000000e+00
2.864519e-01 8.143081e-01 0.000000e+00
2.875024e-01 9.200000e-01 0.000000e+00
3.431832e-01 8.150332e-01 0.000000e+00
3.458505e-01 9.200000e-01 0.000000e+00
3.431832e-01 8.150332e-01 0.000000e+00
3.458505e-01 9.200000e-01 0.000000e+00
3.991833e-01 8.156960e-01 0.000000e+00
4.049233e-01 9.200000e-01 0.000000e+00
3.991833e-01 8.156960e-01 0.000000e+00
4.049233e-01 9.200000e-01 0.000000e+00
4.539044e-01 8.157011e-01 0.000000e+00
4.647045e-01 9.200000e-01 0.000000e+00
4.539044e-01 8.157011e-01 0.000000e+00
4.647045e-01 9.200000e-01 0.000000e+00
5.077192e-01 8.139167e-01 0.000000e+00
5.240548e-01 9.185307e-01 0.000000e+00
5.077192e-01 8.139167e-01 0.000000e+00
5.240548e-01 9.185307e-01 0.000000e+00
5.600588e-01 8.071551e-01 0.000000e+00
5.829617e-01 9.097374e-01 0.000000e+00
5.600588e-01 8.071551e-01 0.000000e+00
5.829617e-01 9.097374e-01 0.000000e+00
6.108281e-01 7.956396e-01 0.000000e+00
6.414072e-01 8.952135e-01 0.000000e+00
6.108281e-01 7.956396e-01 0.000000e+00
6.414072e-01 8.952135e-01 0.000000e+00
6.601748e-01 7.792576e-01 0.000000e+00
6.985430e-01 8.752055e-01 0.000000e+00
6.601748e-01 7.792576e-01 0.000000e+00
6.985430e-01 8.752055e-01 0.000000e+00
7.079621e-01 7.583661e-01 0.000000e+00
7.537686e-01 8.501744e-01 0.000000e+00
7.079621e-01 7.583661e-01 0.000000e+00
7.537686e-01 8.501744e-01 0.000000e+00
7.539915e-01 7.333026e-01 0.000000e+00
8.066807e-01 8.205862e-01 0.000000e+00
7.539915e-01 7.333026e-01 0.000000e+00
8.066807e-01 8.205862e-01 0.000000e+00
7.980623e-01 7.044112e-01 0.000000e+00
8.570196e-01 7.868924e-01 0.000000e+00
7.980623e-01 7.044112e-01 0.000000e+00
8.570196e-01 7.868924e-01 0.000000e+00
8.399895e-01 6.720231e-01 0.000000e+00
9.046085e-01 7.495037e-01 0.000000e+00
8.399895e-01 6.720231e-01 0.000000e+00
9.046085e-01 7.495037e-01 0.000000e+00
8.796089e-01 6.364524e-01 0.000000e+00
9.493192e-01 7.087883e-01 0.000000e+00
8.796089e-01 6.364524e-01 0.000000e+00
9.493192e-01 7.087883e-01 0.000000e+00
9.167775e-01 5.979938e-01 0.000000e+00
9.910529e-01 6.650769e-01 0.000000e+00
9.167775e-01 5.979938e-01 0.000000e+00
9.910529e-01 6.650769e-01 0.000000e+00
9.513709e-01 5.569239e-01 0.000000e+00
1.029728e+00 6.186693e-01 0.000000e+00
9.513709e-01 5.569239e-01 0.000000e+00
1.029728e+00 6.186693e-01 0.000000e+00
9.832811e-01 5.135032e-01 0.000000e+00
1.065273e+00 5.698412e-01 0.000000e+00
9.832811e-01 5.135032e-01 0.000000e+00
1.065273e+00 5.698412e-01 0.000000e+00
1.012414e+00 4.679780e-01 0.000000e+00
1.097626e+00 5.188490e-01 0.000000e+00
1.012414e+00 4.679780e-01 0.000000e+00
1.097626e+00 5.188490e-01 0.000000e+00
1.038687e+00 4.205834e-01 0.000000e+00
1.126731e+00 4.659353e-01 0.000000e+00
1.038687e+00 4.205834e-01 0.000000e+00
1.126731e+00 4.659353e-01 0.000000e+00
1.062030e+00 3.715449e-01 0.000000e+00
1.152535e+00 4.113317e-01 0.000000e+00
1.062030e+00 3.715449e-01 0.000000e+00
1.152535e+00 4.113317e-01 0.000000e+00
1.082381e+00 3.210809e-01 0.000000e+00
1.174995e+00 3.552619e-01 0.000000e+00
1.082381e+00 3.210809e-01 0.000000e+00
1.174995e+00 3.552619e-01 0.000000e+00
1.099688e+00 2.694037e-01 0.000000e+00
1.194069e+00 2.979437e-01 0.000000e+00
1.099688e+00 2.694037e-01 0.000000e+00
1.194069e+00 2.979437e-01 0.000000e+00
1.113908e+00 2.167214e-01 0.000000e+00
1.209723e+00 2.395903e-01 0.000000e+00
1.113908e+00 2.167214e-01 0.000000e+00
1.209723e+00 2.395903e-01 0.000000e+00
1.125003e+00 1.632386e-01 0.000000e+00
1.221928e+00 1.804120e-01 0.000000e+00
1.125003e+00 1.632386e-01 0.000000e+00
1.221928e+00 1.804120e-01 0.000000e+00
1.132948e+00 1.091573e-01 0.000000e+00
1.230663e+00 1.206167e-01 0.000000e+00
1.132948e+00 1.091573e-01 0.000000e+00
1.230663e+00 1.206167e-01 0.000000e+00
1.137723e+00 5.467803e-02 0.000000e+00
1.235910e+00 6.041088e-02 0.000000e+00
1.137723e+00 5.467803e-02 0.000000e+00
1.235910e+00 6.041088e-02 0.000000e+00
1.139316e+00 5.578760e-12 0.000000e+00
1.237660e+00 6.060310e-12 0.000000e+00
</DataArray>
</Points>
<Cells>
<DataArray type="Int32" Name="connectivity" format="ascii">
0 1 3 2
4 5 7 6
8 9 11 10
12 13 15 14
16 17 19 18
20 21 23 22
24 25 27 26
28 29 31 30
32 33 35 34
36 37 39 38
40 41 43 42
44 45 47 46
48 49 51 50
52 53 55 54
56 57 59 58
60 61 63 62
64 65 67 66
68 69 71 70
72 73 75 74
76 77 79 78
80 81 83 82
84 85 87 86
88 89 91 90
92 93 95 94
96 97 99 98
100 101 103 102
104 105 107 106
108 109 111 110
112 113 115 114
116 117 119 118
</DataArray>
<DataArray type="Int32" Name="offsets" format="ascii">
4
8
12
16
20
24
28
32
36
40
44
48
52
56
60
64
68
72
76
80
84
88
92
96
100
104
108
112
116
120
</DataArray>
<DataArray type="UInt8" Name="types" format="ascii">
9
9
9
9
9
9
9
9
9
9
9
9
9
9
9
9
9
9
9
9
9
9
9
9
9
9
9
9
9
9
</DataArray>
</Cells>
<PointData>
<DataArray type="Float32" Name="V1" format="ascii">
1.381245e+01
-1.300475e-01
1.383225e+01
-1.102496e-01
1.384488e+01
-1.203811e-01
1.389575e+01
-6.951334e-02
1.391480e+01
-8.403558e-02
1.400019e+01
1.351141e-03
1.400248e+01
-3.275385e-03
1.412398e+01
1.182216e-01
1.406145e+01
1.566499e-01
1.422593e+01
3.211347e-01
1.400094e+01
4.724918e-01
1.423043e+01
7.019812e-01
1.366048e+01
1.104918e+00
1.402033e+01
1.464766e+00
1.279002e+01
2.385949e+00
1.346837e+01
3.064301e+00
1.124529e+01
5.114931e+00
1.226472e+01
6.134360e+00
1.064391e+01
7.374006e+00
1.110148e+01
7.831574e+00
1.048644e+01
8.295038e+00
1.085149e+01
8.660087e+00
1.060236e+01
8.870174e+00
1.095137e+01
9.219176e+00
1.090370e+01
9.262305e+00
1.123068e+01
9.589280e+00
1.128478e+01
9.545110e+00
1.158365e+01
9.843976e+00
1.168821e+01
9.757184e+00
1.195704e+01
1.002601e+01
1.208244e+01
9.922279e+00
1.232166e+01
1.016149e+01
1.245148e+01
1.005487e+01
1.266277e+01
1.026616e+01
1.278808e+01
1.016401e+01
1.297366e+01
1.034960e+01
1.308992e+01
1.025551e+01
1.325214e+01
1.041772e+01
1.335731e+01
1.033316e+01
1.349839e+01
1.047424e+01
1.359182e+01
1.039954e+01
1.371381e+01
1.052153e+01
1.379561e+01
1.045646e+01
1.390032e+01
1.056117e+01
1.397095e+01
1.050521e+01
1.405995e+01
1.059421e+01
1.412003e+01
1.054677e+01
1.419465e+01
1.062140e+01
1.424481e+01
1.058191e+01
1.430618e+01
1.064328e+01
1.434702e+01
1.061120e+01
1.439604e+01
1.066022e+01
1.442807e+01
1.063510e+01
1.446547e+01
1.067250e+01
1.448912e+01
1.065398e+01
1.451545e+01
1.068031e+01
1.453104e+01
1.066812e+01
1.454669e+01
1.068376e+01
1.455443e+01
1.067771e+01
1.455962e+01
1.068290e+01
</DataArray>
<DataArray type="Float32" Name="V2" format="ascii">
8.126980e-01
9.200000e-01
8.146535e-01
9.217389e-01
8.146535e-01
9.217389e-01
8.204844e-01
9.269454e-01
8.204844e-01
9.269454e-01
8.301602e-01
9.355922e-01
8.301602e-01
9.355922e-01
8.436083e-01
9.476421e-01
8.436083e-01
9.476421e-01
8.607004e-01
9.630629e-01
8.607004e-01
9.630629e-01
8.811921e-01
9.818457e-01
8.811921e-01
9.818457e-01
9.045723e-01
1.004006e+00
9.045723e-01
1.004006e+00
9.297996e-01
1.029474e+00
9.297996e-01
1.029474e+00
9.557048e-01
1.056333e+00
9.557048e-01
1.056333e+00
9.790463e-01
1.079337e+00
9.790463e-01
1.079337e+00
9.999603e-01
1.100125e+00
9.999603e-01
1.100125e+00
1.018474e+00
1.118649e+00
1.018474e+00
1.118649e+00
1.034896e+00
1.135072e+00
1.034896e+00
1.135072e+00
1.049469e+00
1.149589e+00
1.049469e+00
1.149589e+00
1.062409e+00
1.162421e+00
1.062409e+00
1.162421e+00
1.073905e+00
1.173771e+00
1.073905e+00
1.173771e+00
1.084117e+00
1.183815e+00
1.084117e+00
1.183815e+00
1.093181e+00
1.192701e+00
1.093181e+00
1.192701e+00
1.101209e+00
1.200554e+00
1.101209e+00
1.200554e+00
1.108298e+00
1.207474e+00
1.108298e+00
1.207474e+00
1.114525e+00
1.213545e+00
1.114525e+00
1.213545e+00
1.119955e+00
1.218833e+00
1.119955e+00
1.218833e+00
1.124641e+00
1.223392e+00
1.124641e+00
1.223392e+00
1.128625e+00
1.227268e+00
1.128625e+00
1.227268e+00
1.131944e+00
1.230495e+00
1.131944e+00
1.230495e+00
1.134625e+00
1.233101e+00
1.134625e+00
1.233101e+00
1.136689e+00
1.235107e+00
1.136689e+00
1.235107e+00
1.138152e+00
1.236529e+00
1.138152e+00
1.236529e+00
1.139026e+00
1.237378e+00
1.139026e+00
1.237378e+00
1.139316e+00
1.237660e+00
</DataArray>
<DataArray type="Float32" Name="V3" format="ascii">
0.000000e+00
0.000000e+00
1.476540e-02
9.088431e-03
1.476540e-02
9.088431e-03
2.914755e-02
1.786608e-02
2.914755e-02
1.786608e-02
4.275253e-02
2.603972e-02
4.275253e-02
2.603972e-02
5.516633e-02
3.334984e-02
5.516633e-02
3.334984e-02
6.593285e-02
3.959245e-02
6.593285e-02
3.959245e-02
7.452746e-02
4.462771e-02
7.452746e-02
4.462771e-02
8.035043e-02
4.832995e-02
8.035043e-02
4.832995e-02
8.288678e-02
5.033100e-02
8.288678e-02
5.033100e-02
8.287064e-02
4.993201e-02
8.287064e-02
4.993201e-02
8.144760e-02
4.999092e-02
8.144760e-02
4.999092e-02
7.894719e-02
5.036113e-02
7.894719e-02
5.036113e-02
7.605653e-02
5.070028e-02
7.605653e-02
5.070028e-02
7.293466e-02
5.075613e-02
7.293466e-02
5.075613e-02
6.964966e-02
5.040124e-02
6.964966e-02
5.040124e-02
6.622135e-02
4.958743e-02
6.622135e-02
4.958743e-02
6.265216e-02
4.831143e-02
6.265216e-02
4.831143e-02
5.893945e-02
4.659403e-02
5.893945e-02
4.659403e-02
5.508120e-02
4.446777e-02
5.508120e-02
4.446777e-02
5.107805e-02
4.197008e-02
5.107805e-02
4.197008e-02
4.693372e-02
3.913955e-02
4.693372e-02
3.913955e-02
4.265478e-02
3.601397e-02
4.265478e-02
3.601397e-02
3.825014e-02
3.262953e-02
3.825014e-02
3.262953e-02
3.373056e-02
2.902047e-02
3.373056e-02
2.902047e-02
2.910820e-02
2.521917e-02
2.910820e-02
2.521917e-02
2.439631e-02
2.125624e-02
2.439631e-02
2.125624e-02
1.960888e-02
1.716084e-02
1.960888e-02
1.716084e-02
1.476046e-02
1.296088e-02
1.476046e-02
1.296088e-02
9.866007e-03
8.683337e-03
9.866007e-03
8.683337e-03
4.940729e-03
4.354447e-03
4.940729e-03
4.354447e-03
0.000000e+00
0.000000e+00
</DataArray>
<DataArray type="Float32" Name="V4" format="ascii">
8.500000e-01
1.000000e+00
8.500000e-01
1.000000e+00
8.500000e-01
1.000000e+00
8.500000e-01
1.000000e+00
8.500000e-01
1.000000e+00
8.500000e-01
1.000000e+00
8.500000e-01
1.000000e+00
8.500000e-01
1.000000e+00
8.500000e-01
1.000000e+00
8.500000e-01
1.000000e+00
8.500000e-01
1.000000e+00
8.500000e-01
1.000000e+00
8.500000e-01
1.000000e+00
8.500000e-01
1.000000e+00
8.500000e-01
1.000000e+00
8.500000e-01
1.000000e+00
8.500000e-01
1.000000e+00
8.500000e-01
1.000000e+00
8.500000e-01
1.000000e+00
8.500000e-01
1.000000e+00
8.500000e-01
1.000000e+00
8.500000e-01
1.000000e+00
8.500000e-01
1.000000e+00
8.500000e-01
1.000000e+00
8.500000e-01
1.000000e+00
8.500000e-01
1.000000e+00
8.500000e-01
1.000000e+00
8.500000e-01
1.000000e+00
8.500000e-01
1.000000e+00
8.500000e-01
1.000000e+00
8.500000e-01
1.000000e+00
8.500000e-01
1.000000e+00
8.500000e-01
1.000000e+00
8.500000e-01
1.000000e+00
8.500000e-01
1.000000e+00
8.500000e-01
1.000000e+00
8.500000e-01
1.000000e+00
8.500000e-01
1.000000e+00
8.500000e-01
1.000000e+00
8.500000e-01
1.000000e+00
8.500000e-01
1.000000e+00
8.500000e-01
1.000000e+00
8.500000e-01
1.000000e+00
8.500000e-01
1.000000e+00
8.500000e-01
1.000000e+00
8.500000e-01
1.000000e+00
8.500000e-01
1.000000e+00
8.500000e-01
1.000000e+00
8.500000e-01
1.000000e+00
8.500000e-01
1.000000e+00
8.500000e-01
1.000000e+00
8.500000e-01
1.000000e+00
8.500000e-01
1.000000e+00
8.500000e-01
1.000000e+00
8.500000e-01
1.000000e+00
8.500000e-01
1.000000e+00
8.500000e-01
1.000000e+00
8.500000e-01
1.000000e+00
8.500000e-01
1.000000e+00
8.500000e-01
1.000000e+00
</DataArray>
<DataArray type="Float32" Name="V5" format="ascii">
0.000000e+00
0.000000e+00
5.235988e-02
5.235988e-02
5.235988e-02
5.235988e-02
1.047198e-01
1.047198e-01
1.047198e-01
1.047198e-01
1.570796e-01
1.570796e-01
1.570796e-01
1.570796e-01
2.094395e-01
2.094395e-01
2.094395e-01
2.094395e-01
2.617994e-01
2.617994e-01
2.617994e-01
2.617994e-01
3.141593e-01
3.141593e-01
3.141593e-01
3.141593e-01
3.665191e-01
3.665191e-01
3.665191e-01
3.665191e-01
4.188790e-01
4.188790e-01
4.188790e-01
4.188790e-01
4.712389e-01
4.712389e-01
4.712389e-01
4.712389e-01
5.235988e-01
5.235988e-01
5.235988e-01
5.235988e-01
5.759587e-01
5.759587e-01
5.759587e-01
5.759587e-01
6.283185e-01
6.283185e-01
6.283185e-01
6.283185e-01
6.806784e-01
6.806784e-01
6.806784e-01
6.806784e-01
7.330383e-01
7.330383e-01
7.330383e-01
7.330383e-01
7.853982e-01
7.853982e-01
7.853982e-01
7.853982e-01
8.377580e-01
8.377580e-01
8.377580e-01
8.377580e-01
8.901179e-01
8.901179e-01
8.901179e-01
8.901179e-01
9.424778e-01
9.424778e-01
9.424778e-01
9.424778e-01
9.948377e-01
9.948377e-01
9.948377e-01
9.948377e-01
1.047198e+00
1.047198e+00
1.047198e+00
1.047198e+00
1.099557e+00
1.099557e+00
1.099557e+00
1.099557e+00
1.151917e+00
1.151917e+00
1.151917e+00
1.151917e+00
1.204277e+00
1.204277e+00
1.204277e+00
1.204277e+00
1.256637e+00
1.256637e+00
1.256637e+00
1.256637e+00
1.308997e+00
1.308997e+00
1.308997e+00
1.308997e+00
1.361357e+00
1.361357e+00
1.361357e+00
1.361357e+00
1.413717e+00
1.413717e+00
1.413717e+00
1.413717e+00
1.466077e+00
1.466077e+00
1.466077e+00
1.466077e+00
1.518436e+00
1.518436e+00
1.518436e+00
1.518436e+00
1.570796e+00
1.570796e+00
</DataArray>
</PointData>
</Piece></UnstructuredGrid>
</VTKFile>
