<?xml version="1.0"?>
<VTKFile type="UnstructuredGrid" version="0.1" byte_order="LittleEndian" compressor="vtkZLibDataCompressor">
<UnstructuredGrid>
<Piece NumberOfPoints="120" NumberOfCells="30">
<Points>
<DataArray type="Float32" NumberOfComponents="3" format="ascii">
0.000000e+00 4.810099e-01 0.000000e+00
0.000000e+00 5.500000e-01 0.000000e+00
7.152725e-02 4.810515e-01 0.000000e+00
7.147931e-02 5.500000e-01 0.000000e+00
7.152725e-02 4.810515e-01 0.000000e+00
7.147931e-02 5.500000e-01 0.000000e+00
1.430476e-01 4.811301e-01 0.000000e+00
1.429507e-01 5.500000e-01 0.000000e+00
1.430476e-01 4.811301e-01 0.000000e+00
1.429507e-01 5.500000e-01 0.000000e+00
2.145508e-01 4.812611e-01 0.000000e+00
2.144059e-01 5.500000e-01 0.000000e+00
2.145508e-01 4.812611e-01 0.000000e+00
2.144059e-01 5.500000e-01 0.000000e+00
2.860282e-01 4.814439e-01 0.000000e+00
2.858363e-01 5.500000e-01 0.000000e+00
2.860282e-01 4.814439e-01 0.000000e+00
2.858363e-01 5.500000e-01 0.000000e+00
3.574706e-01 4.816779e-01 0.000000e+00
3.572334e-01 5.500000e-01 0.000000e+00
3.574706e-01 4.816779e-01 0.000000e+00
3.572334e-01 5.500000e-01 0.000000e+00
4.288682e-01 4.819622e-01 0.000000e+00
4.285879e-01 5.500000e-01 0.000000e+00
4.288682e-01 4.819622e-01 0.000000e+00
4.285879e-01 5.500000e-01 0.000000e+00
5.002104e-01 4.822957e-01 0.000000e+00
4.998908e-01 5.500000e-01 0.000000e+00
5.002104e-01 4.822957e-01 0.000000e+00
4.998908e-01 5.500000e-01 0.000000e+00
5.714853e-01 4.826773e-01 0.000000e+00
5.711326e-01 5.500000e-01 0.000000e+00
5.714853e-01 4.826773e-01 0.000000e+00
5.711326e-01 5.500000e-01 0.000000e+00
6.426799e-01 4.831058e-01 0.000000e+00
6.423040e-01 5.500000e-01 0.000000e+00
6.426799e-01 4.831058e-01 0.000000e+00
6.423040e-01 5.500000e-01 0.000000e+00
7.137785e-01 4.835796e-01 0.000000e+00
7.133970e-01 5.500000e-01 0.000000e+00
7.137785e-01 4.835796e-01 0.000000e+00
7.133970e-01 5.500000e-01 0.000000e+00
7.847625e-01 4.840972e-01 0.000000e+00
7.844059e-01 5.500000e-01 0.000000e+00
7.847625e-01 4.840972e-01 0.000000e+00
7.844059e-01 5.500000e-01 0.000000e+00
8.556083e-01 4.846571e-01 0.000000e+00
8.553307e-01 5.500000e-01 0.000000e+00
8.556083e-01 4.846571e-01 0.000000e+00
8.553307e-01 5.500000e-01 0.000000e+00
9.262834e-01 4.852575e-01 0.000000e+00
9.261827e-01 5.500000e-01 0.000000e+00
9.262834e-01 4.852575e-01 0.000000e+00
9.261827e-01 5.500000e-01 0.000000e+00
9.967411e-01 4.858962e-01 0.000000e+00
9.969942e-01 5.500000e-01 0.000000e+00
9.967411e-01 4.858962e-01 0.000000e+00
9.969942e-01 5.500000e-01 0.000000e+00
1.066908e+00 4.865701e-01 0.000000e+00
1.067837e+00 5.500000e-01 0.000000e+00
1.066908e+00 4.865701e-01 0.000000e+00
1.067837e+00 5.500000e-01 0.000000e+00
1.136662e+00 4.872741e-01 0.000000e+00
1.138856e+00 5.500000e-01 0.000000e+00
1.136662e+00 4.872741e-01 0.000000e+00
1.138856e+00 5.500000e-01 0.000000e+00
1.205777e+00 4.879993e-01 0.000000e+00
1.210317e+00 5.500000e-01 0.000000e+00
1.205777e+00 4.879993e-01 0.000000e+00
1.210317e+00 5.500000e-01 0.000000e+00
1.273799e+00 4.887098e-01 0.000000e+00
1.282625e+00 5.500000e-01 0.000000e+00
1.273799e+00 4.887098e-01 0.000000e+00
1.282625e+00 5.500000e-01 0.000000e+00
1.340182e+00 4.892517e-01 0.000000e+00
1.355103e+00 5.500000e-01 0.000000e+00
1.340182e+00 4.892517e-01 0.000000e+00
1.355103e+00 5.500000e-01 0.000000e+00
1.404907e+00 4.834976e-01 0.000000e+00
1.424573e+00 5.417203e-01 0.000000e+00
1.404907e+00 4.834976e-01 0.000000e+00
1.424573e+00 5.417203e-01 0.000000e+00
1.465709e+00 4.644388e-01 0.000000e+00
1.491659e+00 5.190307e-01 0.000000e+00
1.465709e+00 4.644388e-01 0.000000e+00
1.491659e+00 5.190307e-01 0.000000e+00
1.521585e+00 4.351881e-01 0.000000e+00
1.554224e+00 4.851000e-01 0.000000e+00
1.521585e+00 4.351881e-01 0.000000e+00
1.554224e+00 4.851000e-01 0.000000e+00
1.571781e+00 3.973012e-01 0.000000e+00
1.610562e+00 4.417048e-01 0.000000e+00
1.571781e+00 3.973012e-01 0.000000e+00
1.610562e+00 4.417048e-01 0.000000e+00
1.615806e+00 3.523237e-01 0.000000e+00
1.659812e+00 3.906853e-01 0.000000e+00
1.615806e+00 3.523237e-01 0.000000e+00
1.659812e+00 3.906853e-01 0.000000e+00
1.653337e+00 3.016147e-01 0.000000e+00
1.701570e+00 3.336537e-01 0.000000e+00
1.653337e+00 3.016147e-01 0.000000e+00
1.701570e+00 3.336537e-01 0.000000e+00
1.684184e+00 2.463759e-01 0.000000e+00
1.735693e+00 2.719820e-01 0.000000e+00
1.684184e+00 2.463759e-01 0.000000e+00
1.735693e+00 2.719820e-01 0.000000e+00
1.708236e+00 1.876738e-01 0.000000e+00
1.762166e+00 2.068332e-01 0.000000e+00
1.708236e+00 1.876738e-01 0.000000e+00
1.762166e+00 2.068332e-01 0.000000e+00
1.725439e+00 1.264669e-01 0.000000e+00
1.781025e+00 1.392083e-01 0.000000e+00
1.725439e+00 1.264669e-01 0.000000e+00
1.781025e+00 1.392083e-01 0.000000e+00
1.735767e+00 6.363356e-02 0.000000e+00
1.792316e+00 6.999293e-02 0.000000e+00
1.735767e+00 6.363356e-02 0.000000e+00
1.792316e+00 6.999293e-02 0.000000e+00
1.739210e+00 8.516200e-12 0.000000e+00
1.796075e+00 8.794640e-12 0.000000e+00
</DataArray>
</Points>
<Cells>
<DataArray type="Int32" Name="connectivity" format="ascii">
0 1 3 2
4 5 7 6
8 9 11 10
12 13 15 14
16 17 19 18
20 21 23 22
24 25 27 26
28 29 31 30
32 33 35 34
36 37 39 38
40 41 43 42
44 45 47 46
48 49 51 50
52 53 55 54
56 57 59 58
60 61 63 62
64 65 67 66
68 69 71 70
72 73 75 74
76 77 79 78
80 81 83 82
84 85 87 86
88 89 91 90
92 93 95 94
96 97 99 98
100 101 103 102
104 105 107 106
108 109 111 110
112 113 115 114
116 117 119 118
</DataArray>
<DataArray type="Int32" Name="offsets" format="ascii">
4
8
12
16
20
24
28
32
36
40
44
48
52
56
60
64
68
72
76
80
84
88
92
96
100
104
108
112
116
120
</DataArray>
<DataArray type="UInt8" Name="types" format="ascii">
9
9
9
9
9
9
9
9
9
9
9
9
9
9
9
9
9
9
9
9
9
9
9
9
9
9
9
9
9
9
</DataArray>
</Cells>
<PointData>
<DataArray type="Float32" Name="V1" format="ascii">
7.251409e+01
-3.259675e-02
7.259276e+01
4.607512e-02
7.272305e+01
-3.686981e-02
7.294638e+01
1.864629e-01
7.320978e+01
1.643624e-02
7.358824e+01
3.948923e-01
7.398471e+01
1.357649e-01
7.452215e+01
6.732053e-01
7.505597e+01
3.224044e-01
7.575870e+01
1.025126e+00
7.643538e+01
5.790099e-01
7.731190e+01
1.455536e+00
7.813810e+01
9.095262e-01
7.919944e+01
1.970859e+00
8.018274e+01
1.319540e+00
8.144275e+01
2.579557e+00
8.259106e+01
1.816956e+00
8.406707e+01
3.292964e+00
8.538737e+01
2.413165e+00
8.710096e+01
4.126763e+00
8.859668e+01
3.125204e+00
9.057509e+01
5.103616e+00
9.224094e+01
3.979687e+00
9.451916e+01
6.257901e+00
9.633102e+01
5.020270e+00
9.895535e+01
7.644594e+00
1.008506e+02
6.321889e+00
1.038845e+02
9.355836e+00
1.057241e+02
8.018837e+00
1.092575e+02
1.155223e+01
1.107554e+02
1.036228e+01
1.149147e+02
1.452162e+01
1.155101e+02
1.384418e+01
1.204556e+02
1.878972e+01
1.190929e+02
1.947875e+01
1.249759e+02
2.536172e+01
1.191400e+02
3.012600e+01
1.269728e+02
3.795878e+01
1.176476e+02
4.724686e+01
1.261723e+02
5.577155e+01
1.222114e+02
5.741543e+01
1.291223e+02
6.432633e+01
1.296904e+02
6.391965e+01
1.363677e+02
7.059690e+01
1.386995e+02
6.889444e+01
1.450092e+02
7.520409e+01
1.480698e+02
7.288311e+01
1.538185e+02
7.863184e+01
1.570014e+02
7.617246e+01
1.620269e+02
8.119797e+01
1.649842e+02
7.889939e+01
1.691792e+02
8.309438e+01
1.717043e+02
8.113218e+01
1.750055e+02
8.443343e+01
1.769759e+02
8.290618e+01
1.793493e+02
8.527956e+01
1.806940e+02
8.424015e+01
1.821227e+02
8.566889e+01
1.828035e+02
8.514377e+01
1.832804e+02
8.562067e+01
</DataArray>
<DataArray type="Float32" Name="V2" format="ascii">
4.810099e-01
5.500000e-01
4.841356e-01
5.529872e-01
4.841356e-01
5.529872e-01
4.934470e-01
5.619295e-01
4.934470e-01
5.619295e-01
5.088991e-01
5.767691e-01
5.088991e-01
5.767691e-01
5.303918e-01
5.974099e-01
5.303918e-01
5.974099e-01
5.577853e-01
6.237180e-01
5.577853e-01
6.237180e-01
5.909008e-01
6.555220e-01
5.909008e-01
6.555220e-01
6.295212e-01
6.926141e-01
6.295212e-01
6.926141e-01
6.733917e-01
7.347506e-01
6.733917e-01
7.347506e-01
7.222209e-01
7.816535e-01
7.222209e-01
7.816535e-01
7.756814e-01
8.330125e-01
7.756814e-01
8.330125e-01
8.334104e-01
8.884869e-01
8.334104e-01
8.884869e-01
8.950098e-01
9.477101e-01
8.950098e-01
9.477101e-01
9.600449e-01
1.010296e+00
9.600449e-01
1.010296e+00
1.028041e+00
1.075849e+00
1.028041e+00
1.075849e+00
1.098475e+00
1.143984e+00
1.098475e+00
1.143984e+00
1.170754e+00
1.214357e+00
1.170754e+00
1.214357e+00
1.244172e+00
1.286719e+00
1.244172e+00
1.286719e+00
1.317782e+00
1.360948e+00
1.317782e+00
1.360948e+00
1.390437e+00
1.436037e+00
1.390437e+00
1.436037e+00
1.458434e+00
1.504576e+00
1.458434e+00
1.504576e+00
1.516807e+00
1.564713e+00
1.516807e+00
1.564713e+00
1.567044e+00
1.617162e+00
1.567044e+00
1.617162e+00
1.609764e+00
1.661882e+00
1.609764e+00
1.661882e+00
1.645596e+00
1.699303e+00
1.645596e+00
1.699303e+00
1.675065e+00
1.729946e+00
1.675065e+00
1.729946e+00
1.698605e+00
1.754313e+00
1.698605e+00
1.754313e+00
1.716563e+00
1.772827e+00
1.716563e+00
1.772827e+00
1.729206e+00
1.785819e+00
1.729206e+00
1.785819e+00
1.736718e+00
1.793523e+00
1.736718e+00
1.793523e+00
1.739210e+00
1.796075e+00
</DataArray>
<DataArray type="Float32" Name="V3" format="ascii">
0.000000e+00
0.000000e+00
4.625294e-02
4.259657e-02
4.625294e-02
4.259657e-02
9.197218e-02
8.467696e-02
9.197218e-02
8.467696e-02
1.366235e-01
1.257273e-01
1.366235e-01
1.257273e-01
1.796799e-01
1.652387e-01
1.796799e-01
1.652387e-01
2.206226e-01
2.027104e-01
2.206226e-01
2.027104e-01
2.589434e-01
2.376520e-01
2.589434e-01
2.376520e-01
2.941473e-01
2.695859e-01
2.941473e-01
2.695859e-01
3.257553e-01
2.980504e-01
3.257553e-01
2.980504e-01
3.533065e-01
3.226023e-01
3.533065e-01
3.226023e-01
3.763605e-01
3.428199e-01
3.763605e-01
3.428199e-01
3.944990e-01
3.583066e-01
3.944990e-01
3.583066e-01
4.073273e-01
3.686952e-01
4.073273e-01
3.686952e-01
4.144749e-01
3.736529e-01
4.144749e-01
3.736529e-01
4.155950e-01
3.728892e-01
4.155950e-01
3.728892e-01
4.103610e-01
3.661663e-01
4.103610e-01
3.661663e-01
3.984599e-01
3.533141e-01
3.984599e-01
3.533141e-01
3.795732e-01
3.342467e-01
3.795732e-01
3.342467e-01
3.533459e-01
3.089489e-01
3.533459e-01
3.089489e-01
3.195944e-01
2.767733e-01
3.195944e-01
2.767733e-01
2.837324e-01
2.431429e-01
2.837324e-01
2.431429e-01
2.515999e-01
2.147393e-01
2.515999e-01
2.147393e-01
2.213204e-01
1.889990e-01
2.213204e-01
1.889990e-01
1.923634e-01
1.648069e-01
1.923634e-01
1.648069e-01
1.642316e-01
1.413462e-01
1.642316e-01
1.413462e-01
1.365778e-01
1.181140e-01
1.365778e-01
1.181140e-01
1.091695e-01
9.483240e-02
1.091695e-01
9.483240e-02
8.186372e-02
7.137675e-02
8.186372e-02
7.137675e-02
5.458337e-02
4.772209e-02
5.458337e-02
4.772209e-02
2.729665e-02
2.390556e-02
2.729665e-02
2.390556e-02
0.000000e+00
0.000000e+00
</DataArray>
<DataArray type="Float32" Name="V4" format="ascii">
8.500000e-01
1.000000e+00
8.500000e-01
1.000000e+00
8.500000e-01
1.000000e+00
8.500000e-01
1.000000e+00
8.500000e-01
1.000000e+00
8.500000e-01
1.000000e+00
8.500000e-01
1.000000e+00
8.500000e-01
1.000000e+00
8.500000e-01
1.000000e+00
8.500000e-01
1.000000e+00
8.500000e-01
1.000000e+00
8.500000e-01
1.000000e+00
8.500000e-01
1.000000e+00
8.500000e-01
1.000000e+00
8.500000e-01
1.000000e+00
8.500000e-01
1.000000e+00
8.500000e-01
1.000000e+00
8.500000e-01
1.000000e+00
8.500000e-01
1.000000e+00
8.500000e-01
1.000000e+00
8.500000e-01
1.000000e+00
8.500000e-01
1.000000e+00
8.500000e-01
1.000000e+00
8.500000e-01
1.000000e+00
8.500000e-01
1.000000e+00
8.500000e-01
1.000000e+00
8.500000e-01
1.000000e+00
8.500000e-01
1.000000e+00
8.500000e-01
1.000000e+00
8.500000e-01
1.000000e+00
8.500000e-01
1.000000e+00
8.500000e-01
1.000000e+00
8.500000e-01
1.000000e+00
8.500000e-01
1.000000e+00
8.500000e-01
1.000000e+00
8.500000e-01
1.000000e+00
8.500000e-01
1.000000e+00
8.500000e-01
1.000000e+00
8.500000e-01
1.000000e+00
8.500000e-01
1.000000e+00
8.500000e-01
1.000000e+00
8.500000e-01
1.000000e+00
8.500000e-01
1.000000e+00
8.500000e-01
1.000000e+00
8.500000e-01
1.000000e+00
8.500000e-01
1.000000e+00
8.500000e-01
1.000000e+00
8.500000e-01
1.000000e+00
8.500000e-01
1.000000e+00
8.500000e-01
1.000000e+00
8.500000e-01
1.000000e+00
8.500000e-01
1.000000e+00
8.500000e-01
1.000000e+00
8.500000e-01
1.000000e+00
8.500000e-01
1.000000e+00
8.500000e-01
1.000000e+00
8.500000e-01
1.000000e+00
8.500000e-01
1.000000e+00
8.500000e-01
1.000000e+00
8.500000e-01
1.000000e+00
</DataArray>
<DataArray type="Float32" Name="V5" format="ascii">
0.000000e+00
0.000000e+00
5.235988e-02
5.235988e-02
5.235988e-02
5.235988e-02
1.047198e-01
1.047198e-01
1.047198e-01
1.047198e-01
1.570796e-01
1.570796e-01
1.570796e-01
1.570796e-01
2.094395e-01
2.094395e-01
2.094395e-01
2.094395e-01
2.617994e-01
2.617994e-01
2.617994e-01
2.617994e-01
3.141593e-01
3.141593e-01
3.141593e-01
3.141593e-01
3.665191e-01
3.665191e-01
3.665191e-01
3.665191e-01
4.188790e-01
4.188790e-01
4.188790e-01
4.188790e-01
4.712389e-01
4.712389e-01
4.712389e-01
4.712389e-01
5.235988e-01
5.235988e-01
5.235988e-01
5.235988e-01
5.759587e-01
5.759587e-01
5.759587e-01
5.759587e-01
6.283185e-01
6.283185e-01
6.283185e-01
6.283185e-01
6.806784e-01
6.806784e-01
6.806784e-01
6.806784e-01
7.330383e-01
7.330383e-01
7.330383e-01
7.330383e-01
7.853982e-01
7.853982e-01
7.853982e-01
7.853982e-01
8.377580e-01
8.377580e-01
8.377580e-01
8.377580e-01
8.901179e-01
8.901179e-01
8.901179e-01
8.901179e-01
9.424778e-01
9.424778e-01
9.424778e-01
9.424778e-01
9.948377e-01
9.948377e-01
9.948377e-01
9.948377e-01
1.047198e+00
1.047198e+00
1.047198e+00
1.047198e+00
1.099557e+00
1.099557e+00
1.099557e+00
1.099557e+00
1.151917e+00
1.151917e+00
1.151917e+00
1.151917e+00
1.204277e+00
1.204277e+00
1.204277e+00
1.204277e+00
1.256637e+00
1.256637e+00
1.256637e+00
1.256637e+00
1.308997e+00
1.308997e+00
1.308997e+00
1.308997e+00
1.361357e+00
1.361357e+00
1.361357e+00
1.361357e+00
1.413717e+00
1.413717e+00
1.413717e+00
1.413717e+00
1.466077e+00
1.466077e+00
1.466077e+00
1.466077e+00
1.518436e+00
1.518436e+00
1.518436e+00
1.518436e+00
1.570796e+00
1.570796e+00
</DataArray>
</PointData>
</Piece></UnstructuredGrid>
</VTKFile>
