<?xml version="1.0"?>
<VTKFile type="UnstructuredGrid" version="0.1" byte_order="LittleEndian" compressor="vtkZLibDataCompressor">
<UnstructuredGrid>
<Piece NumberOfPoints="120" NumberOfCells="30">
<Points>
<DataArray type="Float32" NumberOfComponents="3" format="ascii">
0.000000e+00 4.650667e-01 0.000000e+00
0.000000e+00 5.300000e-01 0.000000e+00
7.372395e-02 4.651075e-01 0.000000e+00
7.368374e-02 5.300000e-01 0.000000e+00
7.372395e-02 4.651075e-01 0.000000e+00
7.368374e-02 5.300000e-01 0.000000e+00
1.474403e-01 4.651806e-01 0.000000e+00
1.473589e-01 5.300000e-01 0.000000e+00
1.474403e-01 4.651806e-01 0.000000e+00
1.473589e-01 5.300000e-01 0.000000e+00
2.211378e-01 4.653021e-01 0.000000e+00
2.210160e-01 5.300000e-01 0.000000e+00
2.211378e-01 4.653021e-01 0.000000e+00
2.210160e-01 5.300000e-01 0.000000e+00
2.948072e-01 4.654719e-01 0.000000e+00
2.946458e-01 5.300000e-01 0.000000e+00
2.948072e-01 4.654719e-01 0.000000e+00
2.946458e-01 5.300000e-01 0.000000e+00
3.684385e-01 4.656892e-01 0.000000e+00
3.682386e-01 5.300000e-01 0.000000e+00
3.684385e-01 4.656892e-01 0.000000e+00
3.682386e-01 5.300000e-01 0.000000e+00
4.420212e-01 4.659532e-01 0.000000e+00
4.417846e-01 5.300000e-01 0.000000e+00
4.420212e-01 4.659532e-01 0.000000e+00
4.417846e-01 5.300000e-01 0.000000e+00
5.155440e-01 4.662631e-01 0.000000e+00
5.152734e-01 5.300000e-01 0.000000e+00
5.155440e-01 4.662631e-01 0.000000e+00
5.152734e-01 5.300000e-01 0.000000e+00
5.889946e-01 4.666178e-01 0.000000e+00
5.886944e-01 5.300000e-01 0.000000e+00
5.889946e-01 4.666178e-01 0.000000e+00
5.886944e-01 5.300000e-01 0.000000e+00
6.623594e-01 4.670160e-01 0.000000e+00
6.620367e-01 5.300000e-01 0.000000e+00
6.623594e-01 4.670160e-01 0.000000e+00
6.620367e-01 5.300000e-01 0.000000e+00
7.356232e-01 4.674563e-01 0.000000e+00
7.352900e-01 5.300000e-01 0.000000e+00
7.356232e-01 4.674563e-01 0.000000e+00
7.352900e-01 5.300000e-01 0.000000e+00
8.087679e-01 4.679374e-01 0.000000e+00
8.084453e-01 5.300000e-01 0.000000e+00
8.087679e-01 4.679374e-01 0.000000e+00
8.084453e-01 5.300000e-01 0.000000e+00
8.817719e-01 4.684576e-01 0.000000e+00
8.814967e-01 5.300000e-01 0.000000e+00
8.817719e-01 4.684576e-01 0.000000e+00
8.814967e-01 5.300000e-01 0.000000e+00
9.546073e-01 4.690147e-01 0.000000e+00
9.544455e-01 5.300000e-01 0.000000e+00
9.546073e-01 4.690147e-01 0.000000e+00
9.544455e-01 5.300000e-01 0.000000e+00
1.027236e+00 4.696065e-01 0.000000e+00
1.027306e+00 5.300000e-01 0.000000e+00
1.027236e+00 4.696065e-01 0.000000e+00
1.027306e+00 5.300000e-01 0.000000e+00
1.099602e+00 4.702291e-01 0.000000e+00
1.100120e+00 5.300000e-01 0.000000e+00
1.099602e+00 4.702291e-01 0.000000e+00
1.100120e+00 5.300000e-01 0.000000e+00
1.171618e+00 4.708771e-01 0.000000e+00
1.172975e+00 5.300000e-01 0.000000e+00
1.171618e+00 4.708771e-01 0.000000e+00
1.172975e+00 5.300000e-01 0.000000e+00
1.243134e+00 4.715432e-01 0.000000e+00
1.246049e+00 5.300000e-01 0.000000e+00
1.243134e+00 4.715432e-01 0.000000e+00
1.246049e+00 5.300000e-01 0.000000e+00
1.313871e+00 4.722230e-01 0.000000e+00
1.319663e+00 5.300000e-01 0.000000e+00
1.313871e+00 4.722230e-01 0.000000e+00
1.319663e+00 5.300000e-01 0.000000e+00
1.383256e+00 4.728964e-01 0.000000e+00
1.394256e+00 5.300000e-01 0.000000e+00
1.383256e+00 4.728964e-01 0.000000e+00
1.394256e+00 5.300000e-01 0.000000e+00
1.451024e+00 4.726413e-01 0.000000e+00
1.467425e+00 5.287891e-01 0.000000e+00
1.451024e+00 4.726413e-01 0.000000e+00
1.467425e+00 5.287891e-01 0.000000e+00
1.516311e+00 4.605527e-01 0.000000e+00
1.537708e+00 5.134429e-01 0.000000e+00
1.516311e+00 4.605527e-01 0.000000e+00
1.537708e+00 5.134429e-01 0.000000e+00
1.576765e+00 4.357644e-01 0.000000e+00
1.604441e+00 4.846420e-01 0.000000e+00
1.576765e+00 4.357644e-01 0.000000e+00
1.604441e+00 4.846420e-01 0.000000e+00
1.631345e+00 4.007267e-01 0.000000e+00
1.665248e+00 4.446071e-01 0.000000e+00
1.631345e+00 4.007267e-01 0.000000e+00
1.665248e+00 4.446071e-01 0.000000e+00
1.679364e+00 3.573020e-01 0.000000e+00
1.718760e+00 3.954601e-01 0.000000e+00
1.679364e+00 3.573020e-01 0.000000e+00
1.718760e+00 3.954601e-01 0.000000e+00
1.720382e+00 3.071256e-01 0.000000e+00
1.764300e+00 3.391328e-01 0.000000e+00
1.720382e+00 3.071256e-01 0.000000e+00
1.764300e+00 3.391328e-01 0.000000e+00
1.754133e+00 2.516335e-01 0.000000e+00
1.801587e+00 2.772833e-01 0.000000e+00
1.754133e+00 2.516335e-01 0.000000e+00
1.801587e+00 2.772833e-01 0.000000e+00
1.780468e+00 1.920921e-01 0.000000e+00
1.830540e+00 2.113149e-01 0.000000e+00
1.780468e+00 1.920921e-01 0.000000e+00
1.830540e+00 2.113149e-01 0.000000e+00
1.799310e+00 1.296315e-01 0.000000e+00
1.851175e+00 1.424264e-01 0.000000e+00
1.799310e+00 1.296315e-01 0.000000e+00
1.851175e+00 1.424264e-01 0.000000e+00
1.810624e+00 6.528019e-02 0.000000e+00
1.863531e+00 7.166900e-02 0.000000e+00
1.810624e+00 6.528019e-02 0.000000e+00
1.863531e+00 7.166900e-02 0.000000e+00
1.814397e+00 8.884360e-12 0.000000e+00
1.867645e+00 9.145090e-12 0.000000e+00
</DataArray>
</Points>
<Cells>
<DataArray type="Int32" Name="connectivity" format="ascii">
0 1 3 2
4 5 7 6
8 9 11 10
12 13 15 14
16 17 19 18
20 21 23 22
24 25 27 26
28 29 31 30
32 33 35 34
36 37 39 38
40 41 43 42
44 45 47 46
48 49 51 50
52 53 55 54
56 57 59 58
60 61 63 62
64 65 67 66
68 69 71 70
72 73 75 74
76 77 79 78
80 81 83 82
84 85 87 86
88 89 91 90
92 93 95 94
96 97 99 98
100 101 103 102
104 105 107 106
108 109 111 110
112 113 115 114
116 117 119 118
</DataArray>
<DataArray type="Int32" Name="offsets" format="ascii">
4
8
12
16
20
24
28
32
36
40
44
48
52
56
60
64
68
72
76
80
84
88
92
96
100
104
108
112
116
120
</DataArray>
<DataArray type="UInt8" Name="types" format="ascii">
9
9
9
9
9
9
9
9
9
9
9
9
9
9
9
9
9
9
9
9
9
9
9
9
9
9
9
9
9
9
</DataArray>
</Cells>
<PointData>
<DataArray type="Float32" Name="V1" format="ascii">
9.252759e+01
6.984629e-01
9.262556e+01
7.964274e-01
9.278674e+01
6.937319e-01
9.306621e+01
9.731987e-01
9.339168e+01
7.629694e-01
9.386500e+01
1.236296e+00
9.435516e+01
9.160593e-01
9.502709e+01
1.587984e+00
9.568732e+01
1.154548e+00
9.656573e+01
2.032966e+00
9.740295e+01
1.481718e+00
9.849851e+01
2.577270e+00
9.952128e+01
1.902347e+00
1.008476e+02
3.228720e+00
1.020660e+02
2.423032e+00
1.036404e+02
3.997414e+00
1.050655e+02
3.052813e+00
1.069092e+02
4.896523e+00
1.085524e+02
3.804200e+00
1.106918e+02
5.943626e+00
1.125625e+02
4.695031e+00
1.150305e+02
7.163022e+00
1.171320e+02
5.751800e+00
1.199701e+02
8.589835e+00
1.222919e+02
7.015765e+00
1.255536e+02
1.027746e+01
1.280551e+02
8.554494e+00
1.318120e+02
1.231139e+01
1.343922e+02
1.048404e+01
1.387430e+02
1.483490e+01
1.411820e+02
1.301333e+01
1.462658e+02
1.809716e+01
1.481178e+02
1.653751e+01
1.541219e+02
2.254159e+01
1.545313e+02
2.184748e+01
1.616524e+02
2.896858e+01
1.590313e+02
3.063790e+01
1.673563e+02
3.896295e+01
1.575206e+02
4.827150e+01
1.695337e+02
6.028461e+01
1.608187e+02
6.705445e+01
1.706517e+02
7.688744e+01
1.691191e+02
7.758752e+01
1.784137e+02
8.688215e+01
1.806389e+02
8.532823e+01
1.895137e+02
9.420305e+01
1.933423e+02
9.141468e+01
2.015586e+02
9.963099e+01
2.058585e+02
9.639068e+01
2.131446e+02
1.036768e+02
2.172775e+02
1.005099e+02
2.234261e+02
1.066585e+02
2.270201e+02
1.038873e+02
2.318965e+02
1.087637e+02
2.347313e+02
1.065752e+02
2.382557e+02
1.100996e+02
2.402029e+02
1.085974e+02
2.423314e+02
1.107259e+02
2.433205e+02
1.099636e+02
2.440321e+02
1.106752e+02
</DataArray>
<DataArray type="Float32" Name="V2" format="ascii">
4.650667e-01
5.300000e-01
4.683285e-01
5.331300e-01
4.683285e-01
5.331300e-01
4.780440e-01
5.424998e-01
4.780440e-01
5.424998e-01
4.941671e-01
5.580493e-01
4.941671e-01
5.580493e-01
5.165941e-01
5.796785e-01
5.165941e-01
5.796785e-01
5.451801e-01
6.072479e-01
5.451801e-01
6.072479e-01
5.797399e-01
6.405789e-01
5.797399e-01
6.405789e-01
6.200486e-01
6.794551e-01
6.200486e-01
6.794551e-01
6.658422e-01
7.236227e-01
6.658422e-01
7.236227e-01
7.168192e-01
7.727918e-01
7.168192e-01
7.727918e-01
7.726407e-01
8.266385e-01
7.726407e-01
8.266385e-01
8.329319e-01
8.848063e-01
8.329319e-01
8.848063e-01
8.972826e-01
9.469098e-01
8.972826e-01
9.469098e-01
9.652467e-01
1.012539e+00
9.652467e-01
1.012539e+00
1.036341e+00
1.081269e+00
1.036341e+00
1.081269e+00
1.110038e+00
1.152669e+00
1.110038e+00
1.152669e+00
1.185760e+00
1.226330e+00
1.185760e+00
1.226330e+00
1.262849e+00
1.301902e+00
1.262849e+00
1.301902e+00
1.340509e+00
1.379156e+00
1.340509e+00
1.379156e+00
1.417654e+00
1.457980e+00
1.417654e+00
1.457980e+00
1.492944e+00
1.535222e+00
1.492944e+00
1.535222e+00
1.560130e+00
1.603206e+00
1.560130e+00
1.603206e+00
1.617688e+00
1.662851e+00
1.617688e+00
1.662851e+00
1.666600e+00
1.713976e+00
1.666600e+00
1.713976e+00
1.707582e+00
1.756842e+00
1.707582e+00
1.756842e+00
1.741251e+00
1.791957e+00
1.741251e+00
1.791957e+00
1.768118e+00
1.819868e+00
1.768118e+00
1.819868e+00
1.788597e+00
1.841060e+00
1.788597e+00
1.841060e+00
1.803004e+00
1.855921e+00
1.803004e+00
1.855921e+00
1.811560e+00
1.864728e+00
1.811560e+00
1.864728e+00
1.814397e+00
1.867645e+00
</DataArray>
<DataArray type="Float32" Name="V3" format="ascii">
0.000000e+00
0.000000e+00
4.928107e-02
4.584470e-02
4.928107e-02
4.584470e-02
9.800798e-02
9.115153e-02
9.800798e-02
9.115153e-02
1.456260e-01
1.353847e-01
1.456260e-01
1.353847e-01
1.915879e-01
1.780139e-01
1.915879e-01
1.780139e-01
2.353551e-01
2.185171e-01
2.353551e-01
2.185171e-01
2.763997e-01
2.563831e-01
2.763997e-01
2.563831e-01
3.142080e-01
2.911142e-01
3.142080e-01
2.911142e-01
3.482828e-01
3.222286e-01
3.482828e-01
3.222286e-01
3.781458e-01
3.492641e-01
3.781458e-01
3.492641e-01
4.033402e-01
3.717798e-01
4.033402e-01
3.717798e-01
4.234329e-01
3.893606e-01
4.234329e-01
3.893606e-01
4.380160e-01
4.016196e-01
4.380160e-01
4.016196e-01
4.467086e-01
4.082037e-01
4.467086e-01
4.082037e-01
4.491570e-01
4.087982e-01
4.491570e-01
4.087982e-01
4.450341e-01
4.031357e-01
4.450341e-01
4.031357e-01
4.340358e-01
3.910069e-01
4.340358e-01
3.910069e-01
4.158719e-01
3.722769e-01
4.158719e-01
3.722769e-01
3.902373e-01
3.468997e-01
3.902373e-01
3.468997e-01
3.567710e-01
3.148707e-01
3.567710e-01
3.148707e-01
3.161927e-01
2.757676e-01
3.161927e-01
2.757676e-01
2.780355e-01
2.406239e-01
2.780355e-01
2.406239e-01
2.432377e-01
2.098422e-01
2.432377e-01
2.098422e-01
2.105113e-01
1.816949e-01
2.105113e-01
1.816949e-01
1.791375e-01
1.550210e-01
1.791375e-01
1.550210e-01
1.486069e-01
1.290574e-01
1.486069e-01
1.290574e-01
1.185700e-01
1.033469e-01
1.185700e-01
1.033469e-01
8.879942e-02
7.764632e-02
8.879942e-02
7.764632e-02
5.915776e-02
5.185428e-02
5.915776e-02
5.185428e-02
2.957004e-02
2.595889e-02
2.957004e-02
2.595889e-02
0.000000e+00
0.000000e+00
</DataArray>
<DataArray type="Float32" Name="V4" format="ascii">
8.500000e-01
1.000000e+00
8.500000e-01
1.000000e+00
8.500000e-01
1.000000e+00
8.500000e-01
1.000000e+00
8.500000e-01
1.000000e+00
8.500000e-01
1.000000e+00
8.500000e-01
1.000000e+00
8.500000e-01
1.000000e+00
8.500000e-01
1.000000e+00
8.500000e-01
1.000000e+00
8.500000e-01
1.000000e+00
8.500000e-01
1.000000e+00
8.500000e-01
1.000000e+00
8.500000e-01
1.000000e+00
8.500000e-01
1.000000e+00
8.500000e-01
1.000000e+00
8.500000e-01
1.000000e+00
8.500000e-01
1.000000e+00
8.500000e-01
1.000000e+00
8.500000e-01
1.000000e+00
8.500000e-01
1.000000e+00
8.500000e-01
1.000000e+00
8.500000e-01
1.000000e+00
8.500000e-01
1.000000e+00
8.500000e-01
1.000000e+00
8.500000e-01
1.000000e+00
8.500000e-01
1.000000e+00
8.500000e-01
1.000000e+00
8.500000e-01
1.000000e+00
8.500000e-01
1.000000e+00
8.500000e-01
1.000000e+00
8.500000e-01
1.000000e+00
8.500000e-01
1.000000e+00
8.500000e-01
1.000000e+00
8.500000e-01
1.000000e+00
8.500000e-01
1.000000e+00
8.500000e-01
1.000000e+00
8.500000e-01
1.000000e+00
8.500000e-01
1.000000e+00
8.500000e-01
1.000000e+00
8.500000e-01
1.000000e+00
8.500000e-01
1.000000e+00
8.500000e-01
1.000000e+00
8.500000e-01
1.000000e+00
8.500000e-01
1.000000e+00
8.500000e-01
1.000000e+00
8.500000e-01
1.000000e+00
8.500000e-01
1.000000e+00
8.500000e-01
1.000000e+00
8.500000e-01
1.000000e+00
8.500000e-01
1.000000e+00
8.500000e-01
1.000000e+00
8.500000e-01
1.000000e+00
8.500000e-01
1.000000e+00
8.500000e-01
1.000000e+00
8.500000e-01
1.000000e+00
8.500000e-01
1.000000e+00
8.500000e-01
1.000000e+00
8.500000e-01
1.000000e+00
8.500000e-01
1.000000e+00
</DataArray>
<DataArray type="Float32" Name="V5" format="ascii">
0.000000e+00
0.000000e+00
5.235988e-02
5.235988e-02
5.235988e-02
5.235988e-02
1.047198e-01
1.047198e-01
1.047198e-01
1.047198e-01
1.570796e-01
1.570796e-01
1.570796e-01
1.570796e-01
2.094395e-01
2.094395e-01
2.094395e-01
2.094395e-01
2.617994e-01
2.617994e-01
2.617994e-01
2.617994e-01
3.141593e-01
3.141593e-01
3.141593e-01
3.141593e-01
3.665191e-01
3.665191e-01
3.665191e-01
3.665191e-01
4.188790e-01
4.188790e-01
4.188790e-01
4.188790e-01
4.712389e-01
4.712389e-01
4.712389e-01
4.712389e-01
5.235988e-01
5.235988e-01
5.235988e-01
5.235988e-01
5.759587e-01
5.759587e-01
5.759587e-01
5.759587e-01
6.283185e-01
6.283185e-01
6.283185e-01
6.283185e-01
6.806784e-01
6.806784e-01
6.806784e-01
6.806784e-01
7.330383e-01
7.330383e-01
7.330383e-01
7.330383e-01
7.853982e-01
7.853982e-01
7.853982e-01
7.853982e-01
8.377580e-01
8.377580e-01
8.377580e-01
8.377580e-01
8.901179e-01
8.901179e-01
8.901179e-01
8.901179e-01
9.424778e-01
9.424778e-01
9.424778e-01
9.424778e-01
9.948377e-01
9.948377e-01
9.948377e-01
9.948377e-01
1.047198e+00
1.047198e+00
1.047198e+00
1.047198e+00
1.099557e+00
1.099557e+00
1.099557e+00
1.099557e+00
1.151917e+00
1.151917e+00
1.151917e+00
1.151917e+00
1.204277e+00
1.204277e+00
1.204277e+00
1.204277e+00
1.256637e+00
1.256637e+00
1.256637e+00
1.256637e+00
1.308997e+00
1.308997e+00
1.308997e+00
1.308997e+00
1.361357e+00
1.361357e+00
1.361357e+00
1.361357e+00
1.413717e+00
1.413717e+00
1.413717e+00
1.413717e+00
1.466077e+00
1.466077e+00
1.466077e+00
1.466077e+00
1.518436e+00
1.518436e+00
1.518436e+00
1.518436e+00
1.570796e+00
1.570796e+00
</DataArray>
</PointData>
</Piece></UnstructuredGrid>
</VTKFile>
