<?xml version="1.0"?>
<VTKFile type="UnstructuredGrid" version="0.1" byte_order="LittleEndian" compressor="vtkZLibDataCompressor">
<UnstructuredGrid>
<Piece NumberOfPoints="120" NumberOfCells="30">
<Points>
<DataArray type="Float32" NumberOfComponents="3" format="ascii">
0.000000e+00 9.938813e-01 0.000000e+00
0.000000e+00 1.110000e+00 0.000000e+00
5.201573e-02 9.925192e-01 0.000000e+00
5.809291e-02 1.108479e+00 0.000000e+00
5.201573e-02 9.925192e-01 0.000000e+00
5.809291e-02 1.108479e+00 0.000000e+00
1.038889e-01 9.884367e-01 0.000000e+00
1.160266e-01 1.103919e+00 0.000000e+00
1.038889e-01 9.884367e-01 0.000000e+00
1.160266e-01 1.103919e+00 0.000000e+00
1.554773e-01 9.816450e-01 0.000000e+00
1.736422e-01 1.096334e+00 0.000000e+00
1.554773e-01 9.816450e-01 0.000000e+00
1.736422e-01 1.096334e+00 0.000000e+00
2.066395e-01 9.721626e-01 0.000000e+00
2.307820e-01 1.085744e+00 0.000000e+00
2.066395e-01 9.721626e-01 0.000000e+00
2.307820e-01 1.085744e+00 0.000000e+00
2.572354e-01 9.600156e-01 0.000000e+00
2.872891e-01 1.072178e+00 0.000000e+00
2.572354e-01 9.600156e-01 0.000000e+00
2.872891e-01 1.072178e+00 0.000000e+00
3.071262e-01 9.452373e-01 0.000000e+00
3.430088e-01 1.055673e+00 0.000000e+00
3.071262e-01 9.452373e-01 0.000000e+00
3.430088e-01 1.055673e+00 0.000000e+00
3.561752e-01 9.278681e-01 0.000000e+00
3.977884e-01 1.036274e+00 0.000000e+00
3.561752e-01 9.278681e-01 0.000000e+00
3.977884e-01 1.036274e+00 0.000000e+00
4.042479e-01 9.079558e-01 0.000000e+00
4.514776e-01 1.014035e+00 0.000000e+00
4.042479e-01 9.079558e-01 0.000000e+00
4.514776e-01 1.014035e+00 0.000000e+00
4.512127e-01 8.855547e-01 0.000000e+00
5.039294e-01 9.890171e-01 0.000000e+00
4.512127e-01 8.855547e-01 0.000000e+00
5.039294e-01 9.890171e-01 0.000000e+00
4.969407e-01 8.607265e-01 0.000000e+00
5.549999e-01 9.612881e-01 0.000000e+00
4.969407e-01 8.607265e-01 0.000000e+00
5.549999e-01 9.612881e-01 0.000000e+00
5.413066e-01 8.335390e-01 0.000000e+00
6.045493e-01 9.309242e-01 0.000000e+00
5.413066e-01 8.335390e-01 0.000000e+00
6.045493e-01 9.309242e-01 0.000000e+00
5.841888e-01 8.040669e-01 0.000000e+00
6.524416e-01 8.980088e-01 0.000000e+00
5.841888e-01 8.040669e-01 0.000000e+00
6.524416e-01 8.980088e-01 0.000000e+00
6.254698e-01 7.723908e-01 0.000000e+00
6.985456e-01 8.626319e-01 0.000000e+00
6.254698e-01 7.723908e-01 0.000000e+00
6.985456e-01 8.626319e-01 0.000000e+00
6.650364e-01 7.385977e-01 0.000000e+00
7.427349e-01 8.248907e-01 0.000000e+00
6.650364e-01 7.385977e-01 0.000000e+00
7.427349e-01 8.248907e-01 0.000000e+00
7.027802e-01 7.027802e-01 0.000000e+00
7.848884e-01 7.848884e-01 0.000000e+00
7.027802e-01 7.027802e-01 0.000000e+00
7.848884e-01 7.848884e-01 0.000000e+00
7.385977e-01 6.650364e-01 0.000000e+00
8.248907e-01 7.427349e-01 0.000000e+00
7.385977e-01 6.650364e-01 0.000000e+00
8.248907e-01 7.427349e-01 0.000000e+00
7.723908e-01 6.254698e-01 0.000000e+00
8.626319e-01 6.985456e-01 0.000000e+00
7.723908e-01 6.254698e-01 0.000000e+00
8.626319e-01 6.985456e-01 0.000000e+00
8.040669e-01 5.841888e-01 0.000000e+00
8.980088e-01 6.524416e-01 0.000000e+00
8.040669e-01 5.841888e-01 0.000000e+00
8.980088e-01 6.524416e-01 0.000000e+00
8.335390e-01 5.413066e-01 0.000000e+00
9.309242e-01 6.045493e-01 0.000000e+00
8.335390e-01 5.413066e-01 0.000000e+00
9.309242e-01 6.045493e-01 0.000000e+00
8.607265e-01 4.969407e-01 0.000000e+00
9.612881e-01 5.549999e-01 0.000000e+00
8.607265e-01 4.969407e-01 0.000000e+00
9.612881e-01 5.549999e-01 0.000000e+00
8.855547e-01 4.512127e-01 0.000000e+00
9.890171e-01 5.039294e-01 0.000000e+00
8.855547e-01 4.512127e-01 0.000000e+00
9.890171e-01 5.039294e-01 0.000000e+00
9.079558e-01 4.042479e-01 0.000000e+00
1.014035e+00 4.514776e-01 0.000000e+00
9.079558e-01 4.042479e-01 0.000000e+00
1.014035e+00 4.514776e-01 0.000000e+00
9.278681e-01 3.561752e-01 0.000000e+00
1.036274e+00 3.977884e-01 0.000000e+00
9.278681e-01 3.561752e-01 0.000000e+00
1.036274e+00 3.977884e-01 0.000000e+00
9.452373e-01 3.071262e-01 0.000000e+00
1.055673e+00 3.430088e-01 0.000000e+00
9.452373e-01 3.071262e-01 0.000000e+00
1.055673e+00 3.430088e-01 0.000000e+00
9.600156e-01 2.572354e-01 0.000000e+00
1.072178e+00 2.872891e-01 0.000000e+00
9.600156e-01 2.572354e-01 0.000000e+00
1.072178e+00 2.872891e-01 0.000000e+00
9.721626e-01 2.066395e-01 0.000000e+00
1.085744e+00 2.307820e-01 0.000000e+00
9.721626e-01 2.066395e-01 0.000000e+00
1.085744e+00 2.307820e-01 0.000000e+00
9.816450e-01 1.554773e-01 0.000000e+00
1.096334e+00 1.736422e-01 0.000000e+00
9.816450e-01 1.554773e-01 0.000000e+00
1.096334e+00 1.736422e-01 0.000000e+00
9.884367e-01 1.038889e-01 0.000000e+00
1.103919e+00 1.160266e-01 0.000000e+00
9.884367e-01 1.038889e-01 0.000000e+00
1.103919e+00 1.160266e-01 0.000000e+00
9.925192e-01 5.201573e-02 0.000000e+00
1.108479e+00 5.809291e-02 0.000000e+00
9.925192e-01 5.201573e-02 0.000000e+00
1.108479e+00 5.809291e-02 0.000000e+00
9.938813e-01 4.866630e-12 0.000000e+00
1.110000e+00 5.435210e-12 0.000000e+00
</DataArray>
</Points>
<Cells>
<DataArray type="Int32" Name="connectivity" format="ascii">
0 1 3 2
4 5 7 6
8 9 11 10
12 13 15 14
16 17 19 18
20 21 23 22
24 25 27 26
28 29 31 30
32 33 35 34
36 37 39 38
40 41 43 42
44 45 47 46
48 49 51 50
52 53 55 54
56 57 59 58
60 61 63 62
64 65 67 66
68 69 71 70
72 73 75 74
76 77 79 78
80 81 83 82
84 85 87 86
88 89 91 90
92 93 95 94
96 97 99 98
100 101 103 102
104 105 107 106
108 109 111 110
112 113 115 114
116 117 119 118
</DataArray>
<DataArray type="Int32" Name="offsets" format="ascii">
4
8
12
16
20
24
28
32
36
40
44
48
52
56
60
64
68
72
76
80
84
88
92
96
100
104
108
112
116
120
</DataArray>
<DataArray type="UInt8" Name="types" format="ascii">
9
9
9
9
9
9
9
9
9
9
9
9
9
9
9
9
9
9
9
9
9
9
9
9
9
9
9
9
9
9
</DataArray>
</Cells>
<PointData>
<DataArray type="Float32" Name="V1" format="ascii">
6.659793e+00
5.672671e+00
6.659793e+00
5.672672e+00
6.659793e+00
5.672671e+00
6.659793e+00
5.672672e+00
6.659793e+00
5.672671e+00
6.659793e+00
5.672672e+00
6.659793e+00
5.672671e+00
6.659793e+00
5.672672e+00
6.659793e+00
5.672672e+00
6.659793e+00
5.672672e+00
6.659793e+00
5.672672e+00
6.659793e+00
5.672672e+00
6.659793e+00
5.672672e+00
6.659793e+00
5.672672e+00
6.659793e+00
5.672672e+00
6.659793e+00
5.672672e+00
6.659793e+00
5.672672e+00
6.659793e+00
5.672672e+00
6.659793e+00
5.672672e+00
6.659793e+00
5.672672e+00
6.659793e+00
5.672672e+00
6.659793e+00
5.672672e+00
6.659793e+00
5.672672e+00
6.659793e+00
5.672672e+00
6.659793e+00
5.672672e+00
6.659793e+00
5.672672e+00
6.659793e+00
5.672672e+00
6.659793e+00
5.672672e+00
6.659793e+00
5.672672e+00
6.659793e+00
5.672672e+00
6.659793e+00
5.672672e+00
6.659793e+00
5.672672e+00
6.659793e+00
5.672672e+00
6.659793e+00
5.672672e+00
6.659793e+00
5.672672e+00
6.659793e+00
5.672672e+00
6.659793e+00
5.672672e+00
6.659793e+00
5.672672e+00
6.659793e+00
5.672672e+00
6.659793e+00
5.672672e+00
6.659793e+00
5.672672e+00
6.659793e+00
5.672672e+00
6.659793e+00
5.672672e+00
6.659793e+00
5.672672e+00
6.659793e+00
5.672672e+00
6.659793e+00
5.672672e+00
6.659793e+00
5.672672e+00
6.659793e+00
5.672672e+00
6.659793e+00
5.672672e+00
6.659793e+00
5.672672e+00
6.659793e+00
5.672672e+00
6.659793e+00
5.672672e+00
6.659793e+00
5.672672e+00
6.659793e+00
5.672672e+00
6.659793e+00
5.672672e+00
6.659793e+00
5.672672e+00
6.659793e+00
5.672672e+00
6.659793e+00
5.672672e+00
6.659793e+00
5.672672e+00
6.659793e+00
5.672672e+00
</DataArray>
<DataArray type="Float32" Name="V2" format="ascii">
9.938813e-01
1.110000e+00
9.938813e-01
1.110000e+00
9.938813e-01
1.110000e+00
9.938813e-01
1.110000e+00
9.938813e-01
1.110000e+00
9.938813e-01
1.110000e+00
9.938813e-01
1.110000e+00
9.938813e-01
1.110000e+00
9.938813e-01
1.110000e+00
9.938813e-01
1.110000e+00
9.938813e-01
1.110000e+00
9.938813e-01
1.110000e+00
9.938813e-01
1.110000e+00
9.938813e-01
1.110000e+00
9.938813e-01
1.110000e+00
9.938813e-01
1.110000e+00
9.938813e-01
1.110000e+00
9.938813e-01
1.110000e+00
9.938813e-01
1.110000e+00
9.938813e-01
1.110000e+00
9.938813e-01
1.110000e+00
9.938813e-01
1.110000e+00
9.938813e-01
1.110000e+00
9.938813e-01
1.110000e+00
9.938813e-01
1.110000e+00
9.938813e-01
1.110000e+00
9.938813e-01
1.110000e+00
9.938813e-01
1.110000e+00
9.938813e-01
1.110000e+00
9.938813e-01
1.110000e+00
9.938813e-01
1.110000e+00
9.938813e-01
1.110000e+00
9.938813e-01
1.110000e+00
9.938813e-01
1.110000e+00
9.938813e-01
1.110000e+00
9.938813e-01
1.110000e+00
9.938813e-01
1.110000e+00
9.938813e-01
1.110000e+00
9.938813e-01
1.110000e+00
9.938813e-01
1.110000e+00
9.938813e-01
1.110000e+00
9.938813e-01
1.110000e+00
9.938813e-01
1.110000e+00
9.938813e-01
1.110000e+00
9.938813e-01
1.110000e+00
9.938813e-01
1.110000e+00
9.938813e-01
1.110000e+00
9.938813e-01
1.110000e+00
9.938813e-01
1.110000e+00
9.938813e-01
1.110000e+00
9.938813e-01
1.110000e+00
9.938813e-01
1.110000e+00
9.938813e-01
1.110000e+00
9.938813e-01
1.110000e+00
9.938813e-01
1.110000e+00
9.938813e-01
1.110000e+00
9.938813e-01
1.110000e+00
9.938813e-01
1.110000e+00
9.938813e-01
1.110000e+00
9.938813e-01
1.110000e+00
</DataArray>
<DataArray type="Float32" Name="V3" format="ascii">
0.000000e+00
0.000000e+00
1.620230e-12
-8.074980e-12
1.620230e-12
-8.074980e-12
1.078140e-12
-6.740280e-12
1.078140e-12
-6.740280e-12
1.382940e-12
-5.732600e-12
1.382940e-12
-5.732600e-12
1.603490e-12
-5.222970e-12
1.603490e-12
-5.222970e-12
1.629050e-12
-4.970830e-12
1.629050e-12
-4.970830e-12
1.739340e-12
-4.928580e-12
1.739340e-12
-4.928580e-12
1.803160e-12
-4.663440e-12
1.803160e-12
-4.663440e-12
1.603070e-12
-4.814980e-12
1.603070e-12
-4.814980e-12
1.495040e-12
-4.822440e-12
1.495040e-12
-4.822440e-12
1.407140e-12
-5.052250e-12
1.407140e-12
-5.052250e-12
1.392230e-12
-5.092480e-12
1.392230e-12
-5.092480e-12
1.263620e-12
-5.319280e-12
1.263620e-12
-5.319280e-12
1.146140e-12
-5.327230e-12
1.146140e-12
-5.327230e-12
1.017130e-12
-5.564880e-12
1.017130e-12
-5.564880e-12
9.767900e-13
-5.679620e-12
9.767900e-13
-5.679620e-12
8.778800e-13
-5.768130e-12
8.778800e-13
-5.768130e-12
7.842500e-13
-5.991320e-12
7.842500e-13
-5.991320e-12
4.219300e-13
-6.424850e-12
4.219300e-13
-6.424850e-12
3.411100e-13
-6.663530e-12
3.411100e-13
-6.663530e-12
2.217500e-13
-6.879280e-12
2.217500e-13
-6.879280e-12
-1.224500e-13
-7.272710e-12
-1.224500e-13
-7.272710e-12
-4.388600e-13
-7.840010e-12
-4.388600e-13
-7.840010e-12
-8.002600e-13
-8.339260e-12
-8.002600e-13
-8.339260e-12
-1.043790e-12
-8.600120e-12
-1.043790e-12
-8.600120e-12
-1.446610e-12
-9.102470e-12
-1.446610e-12
-9.102470e-12
-2.127770e-12
-9.703320e-12
-2.127770e-12
-9.703320e-12
-3.113460e-12
-1.038613e-11
-3.113460e-12
-1.038613e-11
-3.791500e-12
-1.044905e-11
-3.791500e-12
-1.044905e-11
-3.040770e-12
-8.876380e-12
-3.040770e-12
-8.876380e-12
0.000000e+00
0.000000e+00
</DataArray>
<DataArray type="Float32" Name="V4" format="ascii">
8.500000e-01
1.000000e+00
8.500000e-01
1.000000e+00
8.500000e-01
1.000000e+00
8.500000e-01
1.000000e+00
8.500000e-01
1.000000e+00
8.500000e-01
1.000000e+00
8.500000e-01
1.000000e+00
8.500000e-01
1.000000e+00
8.500000e-01
1.000000e+00
8.500000e-01
1.000000e+00
8.500000e-01
1.000000e+00
8.500000e-01
1.000000e+00
8.500000e-01
1.000000e+00
8.500000e-01
1.000000e+00
8.500000e-01
1.000000e+00
8.500000e-01
1.000000e+00
8.500000e-01
1.000000e+00
8.500000e-01
1.000000e+00
8.500000e-01
1.000000e+00
8.500000e-01
1.000000e+00
8.500000e-01
1.000000e+00
8.500000e-01
1.000000e+00
8.500000e-01
1.000000e+00
8.500000e-01
1.000000e+00
8.500000e-01
1.000000e+00
8.500000e-01
1.000000e+00
8.500000e-01
1.000000e+00
8.500000e-01
1.000000e+00
8.500000e-01
1.000000e+00
8.500000e-01
1.000000e+00
8.500000e-01
1.000000e+00
8.500000e-01
1.000000e+00
8.500000e-01
1.000000e+00
8.500000e-01
1.000000e+00
8.500000e-01
1.000000e+00
8.500000e-01
1.000000e+00
8.500000e-01
1.000000e+00
8.500000e-01
1.000000e+00
8.500000e-01
1.000000e+00
8.500000e-01
1.000000e+00
8.500000e-01
1.000000e+00
8.500000e-01
1.000000e+00
8.500000e-01
1.000000e+00
8.500000e-01
1.000000e+00
8.500000e-01
1.000000e+00
8.500000e-01
1.000000e+00
8.500000e-01
1.000000e+00
8.500000e-01
1.000000e+00
8.500000e-01
1.000000e+00
8.500000e-01
1.000000e+00
8.500000e-01
1.000000e+00
8.500000e-01
1.000000e+00
8.500000e-01
1.000000e+00
8.500000e-01
1.000000e+00
8.500000e-01
1.000000e+00
8.500000e-01
1.000000e+00
8.500000e-01
1.000000e+00
8.500000e-01
1.000000e+00
8.500000e-01
1.000000e+00
8.500000e-01
1.000000e+00
</DataArray>
<DataArray type="Float32" Name="V5" format="ascii">
0.000000e+00
0.000000e+00
5.235988e-02
5.235988e-02
5.235988e-02
5.235988e-02
1.047198e-01
1.047198e-01
1.047198e-01
1.047198e-01
1.570796e-01
1.570796e-01
1.570796e-01
1.570796e-01
2.094395e-01
2.094395e-01
2.094395e-01
2.094395e-01
2.617994e-01
2.617994e-01
2.617994e-01
2.617994e-01
3.141593e-01
3.141593e-01
3.141593e-01
3.141593e-01
3.665191e-01
3.665191e-01
3.665191e-01
3.665191e-01
4.188790e-01
4.188790e-01
4.188790e-01
4.188790e-01
4.712389e-01
4.712389e-01
4.712389e-01
4.712389e-01
5.235988e-01
5.235988e-01
5.235988e-01
5.235988e-01
5.759587e-01
5.759587e-01
5.759587e-01
5.759587e-01
6.283185e-01
6.283185e-01
6.283185e-01
6.283185e-01
6.806784e-01
6.806784e-01
6.806784e-01
6.806784e-01
7.330383e-01
7.330383e-01
7.330383e-01
7.330383e-01
7.853982e-01
7.853982e-01
7.853982e-01
7.853982e-01
8.377580e-01
8.377580e-01
8.377580e-01
8.377580e-01
8.901179e-01
8.901179e-01
8.901179e-01
8.901179e-01
9.424778e-01
9.424778e-01
9.424778e-01
9.424778e-01
9.948377e-01
9.948377e-01
9.948377e-01
9.948377e-01
1.047198e+00
1.047198e+00
1.047198e+00
1.047198e+00
1.099557e+00
1.099557e+00
1.099557e+00
1.099557e+00
1.151917e+00
1.151917e+00
1.151917e+00
1.151917e+00
1.204277e+00
1.204277e+00
1.204277e+00
1.204277e+00
1.256637e+00
1.256637e+00
1.256637e+00
1.256637e+00
1.308997e+00
1.308997e+00
1.308997e+00
1.308997e+00
1.361357e+00
1.361357e+00
1.361357e+00
1.361357e+00
1.413717e+00
1.413717e+00
1.413717e+00
1.413717e+00
1.466077e+00
1.466077e+00
1.466077e+00
1.466077e+00
1.518436e+00
1.518436e+00
1.518436e+00
1.518436e+00
1.570796e+00
1.570796e+00
</DataArray>
</PointData>
</Piece></UnstructuredGrid>
</VTKFile>
