<?xml version="1.0"?>
<VTKFile type="UnstructuredGrid" version="0.1" byte_order="LittleEndian" compressor="vtkZLibDataCompressor">
<UnstructuredGrid>
<Piece NumberOfPoints="120" NumberOfCells="30">
<Points>
<DataArray type="Float32" NumberOfComponents="3" format="ascii">
0.000000e+00 6.519806e-01 0.000000e+00
0.000000e+00 7.500000e-01 0.000000e+00
6.004370e-02 6.520341e-01 0.000000e+00
5.994421e-02 7.500000e-01 0.000000e+00
6.004370e-02 6.520341e-01 0.000000e+00
5.994421e-02 7.500000e-01 0.000000e+00
1.200874e-01 6.521670e-01 0.000000e+00
1.198881e-01 7.500000e-01 0.000000e+00
1.200874e-01 6.521670e-01 0.000000e+00
1.198881e-01 7.500000e-01 0.000000e+00
1.801284e-01 6.523888e-01 0.000000e+00
1.798328e-01 7.500000e-01 0.000000e+00
1.801284e-01 6.523888e-01 0.000000e+00
1.798328e-01 7.500000e-01 0.000000e+00
2.401647e-01 6.526991e-01 0.000000e+00
2.397797e-01 7.500000e-01 0.000000e+00
2.401647e-01 6.526991e-01 0.000000e+00
2.397797e-01 7.500000e-01 0.000000e+00
3.001925e-01 6.530984e-01 0.000000e+00
2.997330e-01 7.500000e-01 0.000000e+00
3.001925e-01 6.530984e-01 0.000000e+00
2.997330e-01 7.500000e-01 0.000000e+00
3.602046e-01 6.535884e-01 0.000000e+00
3.597031e-01 7.500000e-01 0.000000e+00
3.602046e-01 6.535884e-01 0.000000e+00
3.597031e-01 7.500000e-01 0.000000e+00
4.201869e-01 6.541730e-01 0.000000e+00
4.197123e-01 7.500000e-01 0.000000e+00
4.201869e-01 6.541730e-01 0.000000e+00
4.197123e-01 7.500000e-01 0.000000e+00
4.801112e-01 6.548596e-01 0.000000e+00
4.798069e-01 7.500000e-01 0.000000e+00
4.801112e-01 6.548596e-01 0.000000e+00
4.798069e-01 7.500000e-01 0.000000e+00
5.399209e-01 6.556590e-01 0.000000e+00
5.400772e-01 7.500000e-01 0.000000e+00
5.399209e-01 6.556590e-01 0.000000e+00
5.400772e-01 7.500000e-01 0.000000e+00
5.995011e-01 6.565785e-01 0.000000e+00
6.006865e-01 7.500000e-01 0.000000e+00
5.995011e-01 6.565785e-01 0.000000e+00
6.006865e-01 7.500000e-01 0.000000e+00
6.586220e-01 6.575916e-01 0.000000e+00
6.618947e-01 7.500000e-01 0.000000e+00
6.586220e-01 6.575916e-01 0.000000e+00
6.618947e-01 7.500000e-01 0.000000e+00
7.168342e-01 6.585137e-01 0.000000e+00
7.240110e-01 7.500000e-01 0.000000e+00
7.168342e-01 6.585137e-01 0.000000e+00
7.240110e-01 7.500000e-01 0.000000e+00
7.734818e-01 6.587768e-01 0.000000e+00
7.869020e-01 7.500000e-01 0.000000e+00
7.734818e-01 6.587768e-01 0.000000e+00
7.869020e-01 7.500000e-01 0.000000e+00
8.291478e-01 6.562410e-01 0.000000e+00
8.483321e-01 7.468468e-01 0.000000e+00
8.291478e-01 6.562410e-01 0.000000e+00
8.483321e-01 7.468468e-01 0.000000e+00
8.824676e-01 6.461643e-01 0.000000e+00
9.090311e-01 7.334873e-01 0.000000e+00
8.824676e-01 6.461643e-01 0.000000e+00
9.090311e-01 7.334873e-01 0.000000e+00
9.335893e-01 6.297264e-01 0.000000e+00
9.683977e-01 7.128690e-01 0.000000e+00
9.335893e-01 6.297264e-01 0.000000e+00
9.683977e-01 7.128690e-01 0.000000e+00
9.823006e-01 6.071115e-01 0.000000e+00
1.025099e+00 6.853236e-01 0.000000e+00
9.823006e-01 6.071115e-01 0.000000e+00
1.025099e+00 6.853236e-01 0.000000e+00
1.028311e+00 5.790063e-01 0.000000e+00
1.078403e+00 6.517163e-01 0.000000e+00
1.028311e+00 5.790063e-01 0.000000e+00
1.078403e+00 6.517163e-01 0.000000e+00
1.071333e+00 5.460075e-01 0.000000e+00
1.127858e+00 6.128522e-01 0.000000e+00
1.071333e+00 5.460075e-01 0.000000e+00
1.127858e+00 6.128522e-01 0.000000e+00
1.111129e+00 5.086992e-01 0.000000e+00
1.173219e+00 5.694750e-01 0.000000e+00
1.111129e+00 5.086992e-01 0.000000e+00
1.173219e+00 5.694750e-01 0.000000e+00
1.147511e+00 4.676247e-01 0.000000e+00
1.214356e+00 5.222380e-01 0.000000e+00
1.147511e+00 4.676247e-01 0.000000e+00
1.214356e+00 5.222380e-01 0.000000e+00
1.180333e+00 4.232855e-01 0.000000e+00
1.251202e+00 4.717117e-01 0.000000e+00
1.180333e+00 4.232855e-01 0.000000e+00
1.251202e+00 4.717117e-01 0.000000e+00
1.209483e+00 3.761426e-01 0.000000e+00
1.283726e+00 4.183961e-01 0.000000e+00
1.209483e+00 3.761426e-01 0.000000e+00
1.283726e+00 4.183961e-01 0.000000e+00
1.234878e+00 3.266201e-01 0.000000e+00
1.311916e+00 3.627348e-01 0.000000e+00
1.234878e+00 3.266201e-01 0.000000e+00
1.311916e+00 3.627348e-01 0.000000e+00
1.256453e+00 2.751110e-01 0.000000e+00
1.335766e+00 3.051278e-01 0.000000e+00
1.256453e+00 2.751110e-01 0.000000e+00
1.335766e+00 3.051278e-01 0.000000e+00
1.274163e+00 2.219824e-01 0.000000e+00
1.355278e+00 2.459416e-01 0.000000e+00
1.274163e+00 2.219824e-01 0.000000e+00
1.355278e+00 2.459416e-01 0.000000e+00
1.287970e+00 1.675811e-01 0.000000e+00
1.370452e+00 1.855178e-01 0.000000e+00
1.287970e+00 1.675811e-01 0.000000e+00
1.370452e+00 1.855178e-01 0.000000e+00
1.297850e+00 1.122383e-01 0.000000e+00
1.381290e+00 1.241802e-01 0.000000e+00
1.297850e+00 1.122383e-01 0.000000e+00
1.381290e+00 1.241802e-01 0.000000e+00
1.303784e+00 5.627368e-02 0.000000e+00
1.387792e+00 6.223983e-02 0.000000e+00
1.303784e+00 5.627368e-02 0.000000e+00
1.387792e+00 6.223983e-02 0.000000e+00
1.305763e+00 6.393790e-12 0.000000e+00
1.389959e+00 6.806060e-12 0.000000e+00
</DataArray>
</Points>
<Cells>
<DataArray type="Int32" Name="connectivity" format="ascii">
0 1 3 2
4 5 7 6
8 9 11 10
12 13 15 14
16 17 19 18
20 21 23 22
24 25 27 26
28 29 31 30
32 33 35 34
36 37 39 38
40 41 43 42
44 45 47 46
48 49 51 50
52 53 55 54
56 57 59 58
60 61 63 62
64 65 67 66
68 69 71 70
72 73 75 74
76 77 79 78
80 81 83 82
84 85 87 86
88 89 91 90
92 93 95 94
96 97 99 98
100 101 103 102
104 105 107 106
108 109 111 110
112 113 115 114
116 117 119 118
</DataArray>
<DataArray type="Int32" Name="offsets" format="ascii">
4
8
12
16
20
24
28
32
36
40
44
48
52
56
60
64
68
72
76
80
84
88
92
96
100
104
108
112
116
120
</DataArray>
<DataArray type="UInt8" Name="types" format="ascii">
9
9
9
9
9
9
9
9
9
9
9
9
9
9
9
9
9
9
9
9
9
9
9
9
9
9
9
9
9
9
</DataArray>
</Cells>
<PointData>
<DataArray type="Float32" Name="V1" format="ascii">
1.843103e+01
-3.147875e-01
1.845740e+01
-2.884184e-01
1.849152e+01
-3.121725e-01
1.856172e+01
-2.419667e-01
1.863222e+01
-2.899559e-01
1.875092e+01
-1.712588e-01
1.885644e+01
-2.441208e-01
1.902474e+01
-7.581554e-02
1.916527e+01
-1.735315e-01
1.938483e+01
4.603298e-02
1.955868e+01
-7.553067e-02
1.983185e+01
1.976411e-01
2.003313e+01
5.580089e-02
2.036327e+01
3.859378e-01
2.057632e+01
2.334573e-01
2.096864e+01
6.257745e-01
2.115678e+01
4.857410e-01
2.162044e+01
9.494034e-01
2.170392e+01
8.737327e-01
2.225686e+01
1.426668e+00
2.207303e+01
1.527960e+00
2.275293e+01
2.207856e+00
2.199147e+01
2.720468e+00
2.289441e+01
3.623408e+00
2.097255e+01
5.083202e+00
2.237201e+01
6.482659e+00
1.887738e+01
9.955889e+00
2.072081e+01
1.179932e+01
1.875794e+01
1.290811e+01
1.967748e+01
1.382764e+01
1.914964e+01
1.426748e+01
2.007357e+01
1.519141e+01
2.002115e+01
1.524335e+01
2.092059e+01
1.614278e+01
2.114811e+01
1.595949e+01
2.199911e+01
1.681049e+01
2.235750e+01
1.651495e+01
2.314119e+01
1.729865e+01
2.355305e+01
1.696009e+01
2.426044e+01
1.766747e+01
2.467927e+01
1.732618e+01
2.530736e+01
1.795427e+01
2.570667e+01
1.763225e+01
2.625618e+01
1.818176e+01
2.662113e+01
1.789041e+01
2.709472e+01
1.836400e+01
2.741755e+01
1.810863e+01
2.781869e+01
1.850977e+01
2.809577e+01
1.829231e+01
2.842809e+01
1.862464e+01
2.865813e+01
1.844527e+01
2.892503e+01
1.871217e+01
2.910799e+01
1.857026e+01
2.931241e+01
1.877468e+01
2.944879e+01
1.866931e+01
2.959309e+01
1.881361e+01
2.968355e+01
1.874391e+01
2.976943e+01
1.882979e+01
2.981451e+01
1.879512e+01
2.984302e+01
1.882363e+01
</DataArray>
<DataArray type="Float32" Name="V2" format="ascii">
6.519806e-01
7.500000e-01
6.542829e-01
7.521094e-01
6.542829e-01
7.521094e-01
6.611469e-01
7.584231e-01
6.611469e-01
7.584231e-01
6.725351e-01
7.688983e-01
6.725351e-01
7.688983e-01
6.883691e-01
7.834637e-01
6.883691e-01
7.834637e-01
7.085402e-01
8.020210e-01
7.085402e-01
8.020210e-01
7.329089e-01
8.244468e-01
7.329089e-01
8.244468e-01
7.613047e-01
8.505968e-01
7.613047e-01
8.505968e-01
7.935229e-01
8.803141e-01
7.935229e-01
8.803141e-01
8.293154e-01
9.134448e-01
8.293154e-01
9.134448e-01
8.683642e-01
9.498623e-01
8.683642e-01
9.498623e-01
9.102140e-01
9.894966e-01
9.102140e-01
9.894966e-01
9.540933e-01
1.032326e+00
9.540933e-01
1.032326e+00
9.987336e-01
1.078073e+00
9.987336e-01
1.078073e+00
1.042490e+00
1.122660e+00
1.042490e+00
1.122660e+00
1.080906e+00
1.161436e+00
1.080906e+00
1.161436e+00
1.115161e+00
1.196662e+00
1.115161e+00
1.196662e+00
1.145459e+00
1.227940e+00
1.145459e+00
1.227940e+00
1.172252e+00
1.255515e+00
1.172252e+00
1.255515e+00
1.195872e+00
1.279684e+00
1.195872e+00
1.279684e+00
1.216616e+00
1.300775e+00
1.216616e+00
1.300775e+00
1.234737e+00
1.319091e+00
1.234737e+00
1.319091e+00
1.250453e+00
1.334893e+00
1.250453e+00
1.334893e+00
1.263947e+00
1.348402e+00
1.263947e+00
1.348402e+00
1.275370e+00
1.359797e+00
1.275370e+00
1.359797e+00
1.284845e+00
1.369224e+00
1.284845e+00
1.369224e+00
1.292472e+00
1.376796e+00
1.292472e+00
1.376796e+00
1.298329e+00
1.382601e+00
1.298329e+00
1.382601e+00
1.302472e+00
1.386703e+00
1.302472e+00
1.386703e+00
1.304942e+00
1.389147e+00
1.304942e+00
1.389147e+00
1.305763e+00
1.389959e+00
</DataArray>
<DataArray type="Float32" Name="V3" format="ascii">
0.000000e+00
0.000000e+00
2.583659e-02
2.061009e-02
2.583659e-02
2.061009e-02
5.125955e-02
4.083498e-02
5.125955e-02
4.083498e-02
7.585465e-02
6.029289e-02
7.585465e-02
6.029289e-02
9.921278e-02
7.860613e-02
9.921278e-02
7.860613e-02
1.209294e-01
9.540561e-02
1.209294e-01
9.540561e-02
1.406050e-01
1.103353e-01
1.406050e-01
1.103353e-01
1.578436e-01
1.230592e-01
1.578436e-01
1.230592e-01
1.722480e-01
1.332729e-01
1.722480e-01
1.332729e-01
1.834101e-01
1.407195e-01
1.834101e-01
1.407195e-01
1.908939e-01
1.452098e-01
1.908939e-01
1.452098e-01
1.942168e-01
1.466323e-01
1.942168e-01
1.466323e-01
1.928664e-01
1.448982e-01
1.928664e-01
1.448982e-01
1.865266e-01
1.395474e-01
1.865266e-01
1.395474e-01
1.770660e-01
1.306956e-01
1.770660e-01
1.306956e-01
1.670917e-01
1.241282e-01
1.670917e-01
1.241282e-01
1.567153e-01
1.182196e-01
1.567153e-01
1.182196e-01
1.463675e-01
1.125195e-01
1.463675e-01
1.125195e-01
1.360001e-01
1.066197e-01
1.360001e-01
1.066197e-01
1.255693e-01
1.002942e-01
1.255693e-01
1.002942e-01
1.150183e-01
9.342992e-02
1.150183e-01
9.342992e-02
1.043026e-01
8.598878e-02
1.043026e-01
8.598878e-02
9.339403e-02
7.797975e-02
9.339403e-02
7.797975e-02
8.228056e-02
6.943998e-02
8.228056e-02
6.943998e-02
7.096401e-02
6.042290e-02
7.096401e-02
6.042290e-02
5.945731e-02
5.099090e-02
5.945731e-02
5.099090e-02
4.778179e-02
4.121098e-02
4.778179e-02
4.121098e-02
3.596497e-02
3.115214e-02
3.596497e-02
3.115214e-02
2.403881e-02
2.088416e-02
2.403881e-02
2.088416e-02
1.203823e-02
1.047688e-02
1.203823e-02
1.047688e-02
0.000000e+00
0.000000e+00
</DataArray>
<DataArray type="Float32" Name="V4" format="ascii">
8.500000e-01
1.000000e+00
8.500000e-01
1.000000e+00
8.500000e-01
1.000000e+00
8.500000e-01
1.000000e+00
8.500000e-01
1.000000e+00
8.500000e-01
1.000000e+00
8.500000e-01
1.000000e+00
8.500000e-01
1.000000e+00
8.500000e-01
1.000000e+00
8.500000e-01
1.000000e+00
8.500000e-01
1.000000e+00
8.500000e-01
1.000000e+00
8.500000e-01
1.000000e+00
8.500000e-01
1.000000e+00
8.500000e-01
1.000000e+00
8.500000e-01
1.000000e+00
8.500000e-01
1.000000e+00
8.500000e-01
1.000000e+00
8.500000e-01
1.000000e+00
8.500000e-01
1.000000e+00
8.500000e-01
1.000000e+00
8.500000e-01
1.000000e+00
8.500000e-01
1.000000e+00
8.500000e-01
1.000000e+00
8.500000e-01
1.000000e+00
8.500000e-01
1.000000e+00
8.500000e-01
1.000000e+00
8.500000e-01
1.000000e+00
8.500000e-01
1.000000e+00
8.500000e-01
1.000000e+00
8.500000e-01
1.000000e+00
8.500000e-01
1.000000e+00
8.500000e-01
1.000000e+00
8.500000e-01
1.000000e+00
8.500000e-01
1.000000e+00
8.500000e-01
1.000000e+00
8.500000e-01
1.000000e+00
8.500000e-01
1.000000e+00
8.500000e-01
1.000000e+00
8.500000e-01
1.000000e+00
8.500000e-01
1.000000e+00
8.500000e-01
1.000000e+00
8.500000e-01
1.000000e+00
8.500000e-01
1.000000e+00
8.500000e-01
1.000000e+00
8.500000e-01
1.000000e+00
8.500000e-01
1.000000e+00
8.500000e-01
1.000000e+00
8.500000e-01
1.000000e+00
8.500000e-01
1.000000e+00
8.500000e-01
1.000000e+00
8.500000e-01
1.000000e+00
8.500000e-01
1.000000e+00
8.500000e-01
1.000000e+00
8.500000e-01
1.000000e+00
8.500000e-01
1.000000e+00
8.500000e-01
1.000000e+00
8.500000e-01
1.000000e+00
8.500000e-01
1.000000e+00
8.500000e-01
1.000000e+00
</DataArray>
<DataArray type="Float32" Name="V5" format="ascii">
0.000000e+00
0.000000e+00
5.235988e-02
5.235988e-02
5.235988e-02
5.235988e-02
1.047198e-01
1.047198e-01
1.047198e-01
1.047198e-01
1.570796e-01
1.570796e-01
1.570796e-01
1.570796e-01
2.094395e-01
2.094395e-01
2.094395e-01
2.094395e-01
2.617994e-01
2.617994e-01
2.617994e-01
2.617994e-01
3.141593e-01
3.141593e-01
3.141593e-01
3.141593e-01
3.665191e-01
3.665191e-01
3.665191e-01
3.665191e-01
4.188790e-01
4.188790e-01
4.188790e-01
4.188790e-01
4.712389e-01
4.712389e-01
4.712389e-01
4.712389e-01
5.235988e-01
5.235988e-01
5.235988e-01
5.235988e-01
5.759587e-01
5.759587e-01
5.759587e-01
5.759587e-01
6.283185e-01
6.283185e-01
6.283185e-01
6.283185e-01
6.806784e-01
6.806784e-01
6.806784e-01
6.806784e-01
7.330383e-01
7.330383e-01
7.330383e-01
7.330383e-01
7.853982e-01
7.853982e-01
7.853982e-01
7.853982e-01
8.377580e-01
8.377580e-01
8.377580e-01
8.377580e-01
8.901179e-01
8.901179e-01
8.901179e-01
8.901179e-01
9.424778e-01
9.424778e-01
9.424778e-01
9.424778e-01
9.948377e-01
9.948377e-01
9.948377e-01
9.948377e-01
1.047198e+00
1.047198e+00
1.047198e+00
1.047198e+00
1.099557e+00
1.099557e+00
1.099557e+00
1.099557e+00
1.151917e+00
1.151917e+00
1.151917e+00
1.151917e+00
1.204277e+00
1.204277e+00
1.204277e+00
1.204277e+00
1.256637e+00
1.256637e+00
1.256637e+00
1.256637e+00
1.308997e+00
1.308997e+00
1.308997e+00
1.308997e+00
1.361357e+00
1.361357e+00
1.361357e+00
1.361357e+00
1.413717e+00
1.413717e+00
1.413717e+00
1.413717e+00
1.466077e+00
1.466077e+00
1.466077e+00
1.466077e+00
1.518436e+00
1.518436e+00
1.518436e+00
1.518436e+00
1.570796e+00
1.570796e+00
</DataArray>
</PointData>
</Piece></UnstructuredGrid>
</VTKFile>
