<?xml version="1.0"?>
<VTKFile type="UnstructuredGrid" version="0.1" byte_order="LittleEndian" compressor="vtkZLibDataCompressor">
<UnstructuredGrid>
<Piece NumberOfPoints="120" NumberOfCells="30">
<Points>
<DataArray type="Float32" NumberOfComponents="3" format="ascii">
0.000000e+00 8.029298e-01 0.000000e+00
0.000000e+00 9.100000e-01 0.000000e+00
5.744702e-02 8.029943e-01 0.000000e+00
5.737223e-02 9.100000e-01 0.000000e+00
5.744702e-02 8.029943e-01 0.000000e+00
5.737223e-02 9.100000e-01 0.000000e+00
1.148867e-01 8.031675e-01 0.000000e+00
1.147674e-01 9.100000e-01 0.000000e+00
1.148867e-01 8.031675e-01 0.000000e+00
1.147674e-01 9.100000e-01 0.000000e+00
1.723021e-01 8.034658e-01 0.000000e+00
1.722229e-01 9.100000e-01 0.000000e+00
1.723021e-01 8.034658e-01 0.000000e+00
1.722229e-01 9.100000e-01 0.000000e+00
2.296580e-01 8.039022e-01 0.000000e+00
2.298046e-01 9.100000e-01 0.000000e+00
2.296580e-01 8.039022e-01 0.000000e+00
2.298046e-01 9.100000e-01 0.000000e+00
2.868766e-01 8.044890e-01 0.000000e+00
2.876301e-01 9.100000e-01 0.000000e+00
2.868766e-01 8.044890e-01 0.000000e+00
2.876301e-01 9.100000e-01 0.000000e+00
3.437973e-01 8.052115e-01 0.000000e+00
3.458873e-01 9.100000e-01 0.000000e+00
3.437973e-01 8.052115e-01 0.000000e+00
3.458873e-01 9.100000e-01 0.000000e+00
4.001086e-01 8.059495e-01 0.000000e+00
4.048136e-01 9.100000e-01 0.000000e+00
4.001086e-01 8.059495e-01 0.000000e+00
4.048136e-01 9.100000e-01 0.000000e+00
4.552823e-01 8.062127e-01 0.000000e+00
4.645292e-01 9.100000e-01 0.000000e+00
4.552823e-01 8.062127e-01 0.000000e+00
4.645292e-01 9.100000e-01 0.000000e+00
5.093075e-01 8.053377e-01 0.000000e+00
5.242067e-01 9.096708e-01 0.000000e+00
5.093075e-01 8.053377e-01 0.000000e+00
5.242067e-01 9.096708e-01 0.000000e+00
5.622118e-01 7.999008e-01 0.000000e+00
5.832326e-01 9.026906e-01 0.000000e+00
5.622118e-01 7.999008e-01 0.000000e+00
5.832326e-01 9.026906e-01 0.000000e+00
6.133620e-01 7.896765e-01 0.000000e+00
6.419341e-01 8.895905e-01 0.000000e+00
6.133620e-01 7.896765e-01 0.000000e+00
6.419341e-01 8.895905e-01 0.000000e+00
6.630630e-01 7.744462e-01 0.000000e+00
6.995111e-01 8.708221e-01 0.000000e+00
6.630630e-01 7.744462e-01 0.000000e+00
6.995111e-01 8.708221e-01 0.000000e+00
7.112100e-01 7.545467e-01 0.000000e+00
7.552692e-01 8.468255e-01 0.000000e+00
7.112100e-01 7.545467e-01 0.000000e+00
7.552692e-01 8.468255e-01 0.000000e+00
7.576078e-01 7.303246e-01 0.000000e+00
8.087428e-01 8.180813e-01 0.000000e+00
7.576078e-01 7.303246e-01 0.000000e+00
8.087428e-01 8.180813e-01 0.000000e+00
8.020502e-01 7.021363e-01 0.000000e+00
8.596351e-01 7.850653e-01 0.000000e+00
8.020502e-01 7.021363e-01 0.000000e+00
8.596351e-01 7.850653e-01 0.000000e+00
8.443445e-01 6.703279e-01 0.000000e+00
9.077494e-01 7.482147e-01 0.000000e+00
8.443445e-01 6.703279e-01 0.000000e+00
9.077494e-01 7.482147e-01 0.000000e+00
8.843198e-01 6.352286e-01 0.000000e+00
9.529476e-01 7.079218e-01 0.000000e+00
8.843198e-01 6.352286e-01 0.000000e+00
9.529476e-01 7.079218e-01 0.000000e+00
9.218274e-01 5.971481e-01 0.000000e+00
9.951266e-01 6.645378e-01 0.000000e+00
9.218274e-01 5.971481e-01 0.000000e+00
9.951266e-01 6.645378e-01 0.000000e+00
9.567388e-01 5.563762e-01 0.000000e+00
1.034204e+00 6.183795e-01 0.000000e+00
9.567388e-01 5.563762e-01 0.000000e+00
1.034204e+00 6.183795e-01 0.000000e+00
9.889430e-01 5.131852e-01 0.000000e+00
1.070109e+00 5.697364e-01 0.000000e+00
9.889430e-01 5.131852e-01 0.000000e+00
1.070109e+00 5.697364e-01 0.000000e+00
1.018344e+00 4.678321e-01 0.000000e+00
1.102782e+00 5.188765e-01 0.000000e+00
1.018344e+00 4.678321e-01 0.000000e+00
1.102782e+00 5.188765e-01 0.000000e+00
1.044858e+00 4.205608e-01 0.000000e+00
1.132166e+00 4.660517e-01 0.000000e+00
1.044858e+00 4.205608e-01 0.000000e+00
1.132166e+00 4.660517e-01 0.000000e+00
1.068415e+00 3.716049e-01 0.000000e+00
1.158214e+00 4.115014e-01 0.000000e+00
1.068415e+00 3.716049e-01 0.000000e+00
1.158214e+00 4.115014e-01 0.000000e+00
1.088951e+00 3.211898e-01 0.000000e+00
1.180880e+00 3.554559e-01 0.000000e+00
1.088951e+00 3.211898e-01 0.000000e+00
1.180880e+00 3.554559e-01 0.000000e+00
1.106414e+00 2.695339e-01 0.000000e+00
1.200127e+00 2.981384e-01 0.000000e+00
1.106414e+00 2.695339e-01 0.000000e+00
1.200127e+00 2.981384e-01 0.000000e+00
1.120761e+00 2.168508e-01 0.000000e+00
1.215921e+00 2.397671e-01 0.000000e+00
1.120761e+00 2.168508e-01 0.000000e+00
1.215921e+00 2.397671e-01 0.000000e+00
1.131957e+00 1.633501e-01 0.000000e+00
1.228234e+00 1.805566e-01 0.000000e+00
1.131957e+00 1.633501e-01 0.000000e+00
1.228234e+00 1.805566e-01 0.000000e+00
1.139973e+00 1.092385e-01 0.000000e+00
1.237045e+00 1.207188e-01 0.000000e+00
1.139973e+00 1.092385e-01 0.000000e+00
1.237045e+00 1.207188e-01 0.000000e+00
1.144790e+00 5.472064e-02 0.000000e+00
1.242338e+00 6.046358e-02 0.000000e+00
1.144790e+00 5.472064e-02 0.000000e+00
1.242338e+00 6.046358e-02 0.000000e+00
1.146397e+00 5.613440e-12 0.000000e+00
1.244103e+00 6.091860e-12 0.000000e+00
</DataArray>
</Points>
<Cells>
<DataArray type="Int32" Name="connectivity" format="ascii">
0 1 3 2
4 5 7 6
8 9 11 10
12 13 15 14
16 17 19 18
20 21 23 22
24 25 27 26
28 29 31 30
32 33 35 34
36 37 39 38
40 41 43 42
44 45 47 46
48 49 51 50
52 53 55 54
56 57 59 58
60 61 63 62
64 65 67 66
68 69 71 70
72 73 75 74
76 77 79 78
80 81 83 82
84 85 87 86
88 89 91 90
92 93 95 94
96 97 99 98
100 101 103 102
104 105 107 106
108 109 111 110
112 113 115 114
116 117 119 118
</DataArray>
<DataArray type="Int32" Name="offsets" format="ascii">
4
8
12
16
20
24
28
32
36
40
44
48
52
56
60
64
68
72
76
80
84
88
92
96
100
104
108
112
116
120
</DataArray>
<DataArray type="UInt8" Name="types" format="ascii">
9
9
9
9
9
9
9
9
9
9
9
9
9
9
9
9
9
9
9
9
9
9
9
9
9
9
9
9
9
9
</DataArray>
</Cells>
<PointData>
<DataArray type="Float32" Name="V1" format="ascii">
1.388331e+01
-1.546026e-01
1.390342e+01
-1.344964e-01
1.391847e+01
-1.462136e-01
1.397032e+01
-9.436463e-02
1.399587e+01
-1.132450e-01
1.408281e+01
-2.630408e-02
1.409987e+01
-4.095212e-02
1.422295e+01
8.213093e-02
1.419197e+01
9.876010e-02
1.435622e+01
2.630091e-01
1.419519e+01
3.687129e-01
1.441734e+01
5.908666e-01
1.396879e+01
9.032736e-01
1.429750e+01
1.231980e+00
1.328788e+01
1.967538e+00
1.387684e+01
2.556504e+00
1.184399e+01
4.265132e+00
1.289443e+01
5.315573e+00
1.091203e+01
7.081726e+00
1.150670e+01
7.676398e+00
1.068730e+01
8.242627e+00
1.107612e+01
8.631449e+00
1.074437e+01
8.907687e+00
1.111641e+01
9.279731e+00
1.102991e+01
9.356156e+00
1.138199e+01
9.708234e+00
1.142151e+01
9.676714e+00
1.174582e+01
1.000103e+01
1.184896e+01
9.915407e+00
1.214224e+01
1.020868e+01
1.227329e+01
1.010007e+01
1.253521e+01
1.036200e+01
1.267415e+01
1.024763e+01
1.290609e+01
1.047958e+01
1.304192e+01
1.036864e+01
1.324601e+01
1.057272e+01
1.337299e+01
1.046980e+01
1.355159e+01
1.064840e+01
1.366703e+01
1.055548e+01
1.382250e+01
1.071096e+01
1.392539e+01
1.062864e+01
1.405992e+01
1.076317e+01
1.415020e+01
1.069132e+01
1.426573e+01
1.080685e+01
1.434380e+01
1.074499e+01
1.444204e+01
1.084322e+01
1.450852e+01
1.079074e+01
1.459090e+01
1.087312e+01
1.464646e+01
1.082940e+01
1.471422e+01
1.089716e+01
1.475948e+01
1.086164e+01
1.481361e+01
1.091577e+01
1.484913e+01
1.088795e+01
1.489043e+01
1.092926e+01
1.491667e+01
1.090874e+01
1.494575e+01
1.093782e+01
1.496304e+01
1.092431e+01
1.498032e+01
1.094159e+01
1.498891e+01
1.093488e+01
1.499465e+01
1.094061e+01
</DataArray>
<DataArray type="Float32" Name="V2" format="ascii">
8.029298e-01
9.100000e-01
8.049004e-01
9.117555e-01
8.049004e-01
9.117555e-01
8.107766e-01
9.170114e-01
8.107766e-01
9.170114e-01
8.205278e-01
9.257380e-01
8.205278e-01
9.257380e-01
8.340836e-01
9.378934e-01
8.340836e-01
9.378934e-01
8.513258e-01
9.534366e-01
8.513258e-01
9.534366e-01
8.720408e-01
9.723465e-01
8.720408e-01
9.723465e-01
8.958048e-01
9.946304e-01
8.958048e-01
9.946304e-01
9.216919e-01
1.020267e+00
9.216919e-01
1.020267e+00
9.487819e-01
1.048507e+00
9.487819e-01
1.048507e+00
9.738403e-01
1.073369e+00
9.738403e-01
1.073369e+00
9.963393e-01
1.095696e+00
9.963393e-01
1.095696e+00
1.016279e+00
1.115672e+00
1.016279e+00
1.115672e+00
1.033972e+00
1.133413e+00
1.033972e+00
1.133413e+00
1.049675e+00
1.149107e+00
1.049675e+00
1.149107e+00
1.063620e+00
1.162979e+00
1.063620e+00
1.162979e+00
1.076007e+00
1.175243e+00
1.076007e+00
1.175243e+00
1.087008e+00
1.186089e+00
1.087008e+00
1.186089e+00
1.096769e+00
1.195680e+00
1.096769e+00
1.195680e+00
1.105413e+00
1.204150e+00
1.105413e+00
1.204150e+00
1.113042e+00
1.211610e+00
1.113042e+00
1.211610e+00
1.119742e+00
1.218151e+00
1.119742e+00
1.218151e+00
1.125583e+00
1.223846e+00
1.125583e+00
1.223846e+00
1.130622e+00
1.228755e+00
1.130622e+00
1.228755e+00
1.134907e+00
1.232926e+00
1.134907e+00
1.232926e+00
1.138475e+00
1.236398e+00
1.138475e+00
1.236398e+00
1.141356e+00
1.239201e+00
1.141356e+00
1.239201e+00
1.143574e+00
1.241358e+00
1.143574e+00
1.241358e+00
1.145146e+00
1.242887e+00
1.145146e+00
1.242887e+00
1.146085e+00
1.243800e+00
1.146085e+00
1.243800e+00
1.146397e+00
1.244103e+00
</DataArray>
<DataArray type="Float32" Name="V3" format="ascii">
0.000000e+00
0.000000e+00
1.534282e-02
9.667883e-03
1.534282e-02
9.667883e-03
3.030349e-02
1.901780e-02
3.030349e-02
1.901780e-02
4.449108e-02
2.774717e-02
4.449108e-02
2.774717e-02
5.749870e-02
3.558317e-02
5.749870e-02
3.558317e-02
6.888448e-02
4.230397e-02
6.888448e-02
4.230397e-02
7.814663e-02
4.775287e-02
7.814663e-02
4.775287e-02
8.470712e-02
5.181119e-02
8.470712e-02
5.181119e-02
8.800477e-02
5.423819e-02
8.800477e-02
5.423819e-02
8.818065e-02
5.408966e-02
8.818065e-02
5.408966e-02
8.693934e-02
5.374898e-02
8.693934e-02
5.374898e-02
8.432001e-02
5.386549e-02
8.432001e-02
5.386549e-02
8.122115e-02
5.405997e-02
8.122115e-02
5.405997e-02
7.786238e-02
5.402983e-02
7.786238e-02
5.402983e-02
7.432980e-02
5.360981e-02
7.432980e-02
5.360981e-02
7.064982e-02
5.272883e-02
7.064982e-02
5.272883e-02
6.682609e-02
5.137101e-02
6.682609e-02
5.137101e-02
6.285514e-02
4.955083e-02
6.285514e-02
4.955083e-02
5.873362e-02
4.729843e-02
5.873362e-02
4.729843e-02
5.446094e-02
4.465108e-02
5.446094e-02
4.465108e-02
5.004003e-02
4.164841e-02
5.004003e-02
4.164841e-02
4.547704e-02
3.832999e-02
4.547704e-02
3.832999e-02
4.078084e-02
3.473404e-02
4.078084e-02
3.473404e-02
3.596249e-02
3.089701e-02
3.596249e-02
3.089701e-02
3.103467e-02
2.685347e-02
3.103467e-02
2.685347e-02
2.601132e-02
2.263624e-02
2.601132e-02
2.263624e-02
2.090728e-02
1.827659e-02
2.090728e-02
1.827659e-02
1.573803e-02
1.380452e-02
1.573803e-02
1.380452e-02
1.051953e-02
9.248988e-03
1.051953e-02
9.248988e-03
5.268036e-03
4.638239e-03
5.268036e-03
4.638239e-03
0.000000e+00
0.000000e+00
</DataArray>
<DataArray type="Float32" Name="V4" format="ascii">
8.500000e-01
1.000000e+00
8.500000e-01
1.000000e+00
8.500000e-01
1.000000e+00
8.500000e-01
1.000000e+00
8.500000e-01
1.000000e+00
8.500000e-01
1.000000e+00
8.500000e-01
1.000000e+00
8.500000e-01
1.000000e+00
8.500000e-01
1.000000e+00
8.500000e-01
1.000000e+00
8.500000e-01
1.000000e+00
8.500000e-01
1.000000e+00
8.500000e-01
1.000000e+00
8.500000e-01
1.000000e+00
8.500000e-01
1.000000e+00
8.500000e-01
1.000000e+00
8.500000e-01
1.000000e+00
8.500000e-01
1.000000e+00
8.500000e-01
1.000000e+00
8.500000e-01
1.000000e+00
8.500000e-01
1.000000e+00
8.500000e-01
1.000000e+00
8.500000e-01
1.000000e+00
8.500000e-01
1.000000e+00
8.500000e-01
1.000000e+00
8.500000e-01
1.000000e+00
8.500000e-01
1.000000e+00
8.500000e-01
1.000000e+00
8.500000e-01
1.000000e+00
8.500000e-01
1.000000e+00
8.500000e-01
1.000000e+00
8.500000e-01
1.000000e+00
8.500000e-01
1.000000e+00
8.500000e-01
1.000000e+00
8.500000e-01
1.000000e+00
8.500000e-01
1.000000e+00
8.500000e-01
1.000000e+00
8.500000e-01
1.000000e+00
8.500000e-01
1.000000e+00
8.500000e-01
1.000000e+00
8.500000e-01
1.000000e+00
8.500000e-01
1.000000e+00
8.500000e-01
1.000000e+00
8.500000e-01
1.000000e+00
8.500000e-01
1.000000e+00
8.500000e-01
1.000000e+00
8.500000e-01
1.000000e+00
8.500000e-01
1.000000e+00
8.500000e-01
1.000000e+00
8.500000e-01
1.000000e+00
8.500000e-01
1.000000e+00
8.500000e-01
1.000000e+00
8.500000e-01
1.000000e+00
8.500000e-01
1.000000e+00
8.500000e-01
1.000000e+00
8.500000e-01
1.000000e+00
8.500000e-01
1.000000e+00
8.500000e-01
1.000000e+00
8.500000e-01
1.000000e+00
8.500000e-01
1.000000e+00
</DataArray>
<DataArray type="Float32" Name="V5" format="ascii">
0.000000e+00
0.000000e+00
5.235988e-02
5.235988e-02
5.235988e-02
5.235988e-02
1.047198e-01
1.047198e-01
1.047198e-01
1.047198e-01
1.570796e-01
1.570796e-01
1.570796e-01
1.570796e-01
2.094395e-01
2.094395e-01
2.094395e-01
2.094395e-01
2.617994e-01
2.617994e-01
2.617994e-01
2.617994e-01
3.141593e-01
3.141593e-01
3.141593e-01
3.141593e-01
3.665191e-01
3.665191e-01
3.665191e-01
3.665191e-01
4.188790e-01
4.188790e-01
4.188790e-01
4.188790e-01
4.712389e-01
4.712389e-01
4.712389e-01
4.712389e-01
5.235988e-01
5.235988e-01
5.235988e-01
5.235988e-01
5.759587e-01
5.759587e-01
5.759587e-01
5.759587e-01
6.283185e-01
6.283185e-01
6.283185e-01
6.283185e-01
6.806784e-01
6.806784e-01
6.806784e-01
6.806784e-01
7.330383e-01
7.330383e-01
7.330383e-01
7.330383e-01
7.853982e-01
7.853982e-01
7.853982e-01
7.853982e-01
8.377580e-01
8.377580e-01
8.377580e-01
8.377580e-01
8.901179e-01
8.901179e-01
8.901179e-01
8.901179e-01
9.424778e-01
9.424778e-01
9.424778e-01
9.424778e-01
9.948377e-01
9.948377e-01
9.948377e-01
9.948377e-01
1.047198e+00
1.047198e+00
1.047198e+00
1.047198e+00
1.099557e+00
1.099557e+00
1.099557e+00
1.099557e+00
1.151917e+00
1.151917e+00
1.151917e+00
1.151917e+00
1.204277e+00
1.204277e+00
1.204277e+00
1.204277e+00
1.256637e+00
1.256637e+00
1.256637e+00
1.256637e+00
1.308997e+00
1.308997e+00
1.308997e+00
1.308997e+00
1.361357e+00
1.361357e+00
1.361357e+00
1.361357e+00
1.413717e+00
1.413717e+00
1.413717e+00
1.413717e+00
1.466077e+00
1.466077e+00
1.466077e+00
1.466077e+00
1.518436e+00
1.518436e+00
1.518436e+00
1.518436e+00
1.570796e+00
1.570796e+00
</DataArray>
</PointData>
</Piece></UnstructuredGrid>
</VTKFile>
