<?xml version="1.0"?>
<VTKFile type="UnstructuredGrid" version="0.1" byte_order="LittleEndian" compressor="vtkZLibDataCompressor">
<UnstructuredGrid>
<Piece NumberOfPoints="120" NumberOfCells="30">
<Points>
<DataArray type="Float32" NumberOfComponents="3" format="ascii">
0.000000e+00 8.637559e-01 0.000000e+00
0.000000e+00 1.010000e+00 0.000000e+00
4.520549e-02 8.625721e-01 0.000000e+00
5.285932e-02 1.008616e+00 0.000000e+00
4.520549e-02 8.625721e-01 0.000000e+00
5.285932e-02 1.008616e+00 0.000000e+00
9.028708e-02 8.590241e-01 0.000000e+00
1.055737e-01 1.004467e+00 0.000000e+00
9.028708e-02 8.590241e-01 0.000000e+00
1.055737e-01 1.004467e+00 0.000000e+00
1.351212e-01 8.531216e-01 0.000000e+00
1.579988e-01 9.975652e-01 0.000000e+00
1.351212e-01 8.531216e-01 0.000000e+00
1.579988e-01 9.975652e-01 0.000000e+00
1.795849e-01 8.448807e-01 0.000000e+00
2.099908e-01 9.879291e-01 0.000000e+00
1.795849e-01 8.448807e-01 0.000000e+00
2.099908e-01 9.879291e-01 0.000000e+00
2.235565e-01 8.343241e-01 0.000000e+00
2.614072e-01 9.755851e-01 0.000000e+00
2.235565e-01 8.343241e-01 0.000000e+00
2.614072e-01 9.755851e-01 0.000000e+00
2.669152e-01 8.214807e-01 0.000000e+00
3.121072e-01 9.605671e-01 0.000000e+00
2.669152e-01 8.214807e-01 0.000000e+00
3.121072e-01 9.605671e-01 0.000000e+00
3.095424e-01 8.063856e-01 0.000000e+00
3.619516e-01 9.429162e-01 0.000000e+00
3.095424e-01 8.063856e-01 0.000000e+00
3.619516e-01 9.429162e-01 0.000000e+00
3.513212e-01 7.890803e-01 0.000000e+00
4.108040e-01 9.226809e-01 0.000000e+00
3.513212e-01 7.890803e-01 0.000000e+00
4.108040e-01 9.226809e-01 0.000000e+00
3.921370e-01 7.696121e-01 0.000000e+00
4.585304e-01 8.999166e-01 0.000000e+00
3.921370e-01 7.696121e-01 0.000000e+00
4.585304e-01 8.999166e-01 0.000000e+00
4.318779e-01 7.480345e-01 0.000000e+00
5.050000e-01 8.746857e-01 0.000000e+00
4.318779e-01 7.480345e-01 0.000000e+00
5.050000e-01 8.746857e-01 0.000000e+00
4.704352e-01 7.244066e-01 0.000000e+00
5.500854e-01 8.470573e-01 0.000000e+00
4.704352e-01 7.244066e-01 0.000000e+00
5.500854e-01 8.470573e-01 0.000000e+00
5.077030e-01 6.987932e-01 0.000000e+00
5.936631e-01 8.171072e-01 0.000000e+00
5.077030e-01 6.987932e-01 0.000000e+00
5.936631e-01 8.171072e-01 0.000000e+00
5.435792e-01 6.712644e-01 0.000000e+00
6.356136e-01 7.849174e-01 0.000000e+00
5.435792e-01 6.712644e-01 0.000000e+00
6.356136e-01 7.849174e-01 0.000000e+00
5.779655e-01 6.418957e-01 0.000000e+00
6.758219e-01 7.505763e-01 0.000000e+00
5.779655e-01 6.418957e-01 0.000000e+00
6.758219e-01 7.505763e-01 0.000000e+00
6.107676e-01 6.107676e-01 0.000000e+00
7.141778e-01 7.141778e-01 0.000000e+00
6.107676e-01 6.107676e-01 0.000000e+00
7.141778e-01 7.141778e-01 0.000000e+00
6.418957e-01 5.779655e-01 0.000000e+00
7.505763e-01 6.758219e-01 0.000000e+00
6.418957e-01 5.779655e-01 0.000000e+00
7.505763e-01 6.758219e-01 0.000000e+00
6.712644e-01 5.435792e-01 0.000000e+00
7.849174e-01 6.356136e-01 0.000000e+00
6.712644e-01 5.435792e-01 0.000000e+00
7.849174e-01 6.356136e-01 0.000000e+00
6.987932e-01 5.077030e-01 0.000000e+00
8.171072e-01 5.936631e-01 0.000000e+00
6.987932e-01 5.077030e-01 0.000000e+00
8.171072e-01 5.936631e-01 0.000000e+00
7.244066e-01 4.704352e-01 0.000000e+00
8.470573e-01 5.500854e-01 0.000000e+00
7.244066e-01 4.704352e-01 0.000000e+00
8.470573e-01 5.500854e-01 0.000000e+00
7.480345e-01 4.318779e-01 0.000000e+00
8.746857e-01 5.050000e-01 0.000000e+00
7.480345e-01 4.318779e-01 0.000000e+00
8.746857e-01 5.050000e-01 0.000000e+00
7.696121e-01 3.921370e-01 0.000000e+00
8.999166e-01 4.585304e-01 0.000000e+00
7.696121e-01 3.921370e-01 0.000000e+00
8.999166e-01 4.585304e-01 0.000000e+00
7.890803e-01 3.513212e-01 0.000000e+00
9.226809e-01 4.108040e-01 0.000000e+00
7.890803e-01 3.513212e-01 0.000000e+00
9.226809e-01 4.108040e-01 0.000000e+00
8.063856e-01 3.095424e-01 0.000000e+00
9.429162e-01 3.619516e-01 0.000000e+00
8.063856e-01 3.095424e-01 0.000000e+00
9.429162e-01 3.619516e-01 0.000000e+00
8.214807e-01 2.669152e-01 0.000000e+00
9.605671e-01 3.121072e-01 0.000000e+00
8.214807e-01 2.669152e-01 0.000000e+00
9.605671e-01 3.121072e-01 0.000000e+00
8.343241e-01 2.235565e-01 0.000000e+00
9.755851e-01 2.614072e-01 0.000000e+00
8.343241e-01 2.235565e-01 0.000000e+00
9.755851e-01 2.614072e-01 0.000000e+00
8.448807e-01 1.795849e-01 0.000000e+00
9.879291e-01 2.099908e-01 0.000000e+00
8.448807e-01 1.795849e-01 0.000000e+00
9.879291e-01 2.099908e-01 0.000000e+00
8.531216e-01 1.351212e-01 0.000000e+00
9.975652e-01 1.579988e-01 0.000000e+00
8.531216e-01 1.351212e-01 0.000000e+00
9.975652e-01 1.579988e-01 0.000000e+00
8.590241e-01 9.028708e-02 0.000000e+00
1.004467e+00 1.055737e-01 0.000000e+00
8.590241e-01 9.028708e-02 0.000000e+00
1.004467e+00 1.055737e-01 0.000000e+00
8.625721e-01 4.520549e-02 0.000000e+00
1.008616e+00 5.285932e-02 0.000000e+00
8.625721e-01 4.520549e-02 0.000000e+00
1.008616e+00 5.285932e-02 0.000000e+00
8.637559e-01 4.229460e-12 0.000000e+00
1.010000e+00 4.945550e-12 0.000000e+00
</DataArray>
</Points>
<Cells>
<DataArray type="Int32" Name="connectivity" format="ascii">
0 1 3 2
4 5 7 6
8 9 11 10
12 13 15 14
16 17 19 18
20 21 23 22
24 25 27 26
28 29 31 30
32 33 35 34
36 37 39 38
40 41 43 42
44 45 47 46
48 49 51 50
52 53 55 54
56 57 59 58
60 61 63 62
64 65 67 66
68 69 71 70
72 73 75 74
76 77 79 78
80 81 83 82
84 85 87 86
88 89 91 90
92 93 95 94
96 97 99 98
100 101 103 102
104 105 107 106
108 109 111 110
112 113 115 114
116 117 119 118
</DataArray>
<DataArray type="Int32" Name="offsets" format="ascii">
4
8
12
16
20
24
28
32
36
40
44
48
52
56
60
64
68
72
76
80
84
88
92
96
100
104
108
112
116
120
</DataArray>
<DataArray type="UInt8" Name="types" format="ascii">
9
9
9
9
9
9
9
9
9
9
9
9
9
9
9
9
9
9
9
9
9
9
9
9
9
9
9
9
9
9
</DataArray>
</Cells>
<PointData>
<DataArray type="Float32" Name="V1" format="ascii">
5.553294e-01
5.515708e-01
5.553294e-01
5.515708e-01
5.553294e-01
5.515708e-01
5.553294e-01
5.515708e-01
5.553294e-01
5.515708e-01
5.553294e-01
5.515708e-01
5.553294e-01
5.515708e-01
5.553294e-01
5.515708e-01
5.553294e-01
5.515708e-01
5.553294e-01
5.515708e-01
5.553294e-01
5.515708e-01
5.553294e-01
5.515708e-01
5.553294e-01
5.515708e-01
5.553294e-01
5.515708e-01
5.553294e-01
5.515708e-01
5.553294e-01
5.515708e-01
5.553294e-01
5.515708e-01
5.553294e-01
5.515708e-01
5.553294e-01
5.515708e-01
5.553294e-01
5.515708e-01
5.553294e-01
5.515708e-01
5.553294e-01
5.515708e-01
5.553294e-01
5.515708e-01
5.553294e-01
5.515708e-01
5.553294e-01
5.515708e-01
5.553294e-01
5.515708e-01
5.553294e-01
5.515708e-01
5.553294e-01
5.515708e-01
5.553294e-01
5.515708e-01
5.553294e-01
5.515708e-01
5.553294e-01
5.515708e-01
5.553294e-01
5.515708e-01
5.553294e-01
5.515708e-01
5.553294e-01
5.515708e-01
5.553294e-01
5.515708e-01
5.553294e-01
5.515708e-01
5.553294e-01
5.515708e-01
5.553294e-01
5.515708e-01
5.553294e-01
5.515708e-01
5.553294e-01
5.515708e-01
5.553294e-01
5.515708e-01
5.553294e-01
5.515708e-01
5.553294e-01
5.515708e-01
5.553294e-01
5.515708e-01
5.553294e-01
5.515708e-01
5.553294e-01
5.515708e-01
5.553294e-01
5.515708e-01
5.553294e-01
5.515708e-01
5.553294e-01
5.515708e-01
5.553294e-01
5.515708e-01
5.553294e-01
5.515708e-01
5.553294e-01
5.515708e-01
5.553294e-01
5.515708e-01
5.553294e-01
5.515708e-01
5.553294e-01
5.515708e-01
5.553294e-01
5.515708e-01
5.553294e-01
5.515708e-01
5.553294e-01
5.515708e-01
5.553294e-01
5.515708e-01
5.553294e-01
5.515708e-01
</DataArray>
<DataArray type="Float32" Name="V2" format="ascii">
8.637559e-01
1.010000e+00
8.637559e-01
1.010000e+00
8.637559e-01
1.010000e+00
8.637559e-01
1.010000e+00
8.637559e-01
1.010000e+00
8.637559e-01
1.010000e+00
8.637559e-01
1.010000e+00
8.637559e-01
1.010000e+00
8.637559e-01
1.010000e+00
8.637559e-01
1.010000e+00
8.637559e-01
1.010000e+00
8.637559e-01
1.010000e+00
8.637559e-01
1.010000e+00
8.637559e-01
1.010000e+00
8.637559e-01
1.010000e+00
8.637559e-01
1.010000e+00
8.637559e-01
1.010000e+00
8.637559e-01
1.010000e+00
8.637559e-01
1.010000e+00
8.637559e-01
1.010000e+00
8.637559e-01
1.010000e+00
8.637559e-01
1.010000e+00
8.637559e-01
1.010000e+00
8.637559e-01
1.010000e+00
8.637559e-01
1.010000e+00
8.637559e-01
1.010000e+00
8.637559e-01
1.010000e+00
8.637559e-01
1.010000e+00
8.637559e-01
1.010000e+00
8.637559e-01
1.010000e+00
8.637559e-01
1.010000e+00
8.637559e-01
1.010000e+00
8.637559e-01
1.010000e+00
8.637559e-01
1.010000e+00
8.637559e-01
1.010000e+00
8.637559e-01
1.010000e+00
8.637559e-01
1.010000e+00
8.637559e-01
1.010000e+00
8.637559e-01
1.010000e+00
8.637559e-01
1.010000e+00
8.637559e-01
1.010000e+00
8.637559e-01
1.010000e+00
8.637559e-01
1.010000e+00
8.637559e-01
1.010000e+00
8.637559e-01
1.010000e+00
8.637559e-01
1.010000e+00
8.637559e-01
1.010000e+00
8.637559e-01
1.010000e+00
8.637559e-01
1.010000e+00
8.637559e-01
1.010000e+00
8.637559e-01
1.010000e+00
8.637559e-01
1.010000e+00
8.637559e-01
1.010000e+00
8.637559e-01
1.010000e+00
8.637559e-01
1.010000e+00
8.637559e-01
1.010000e+00
8.637559e-01
1.010000e+00
8.637559e-01
1.010000e+00
8.637559e-01
1.010000e+00
8.637559e-01
1.010000e+00
</DataArray>
<DataArray type="Float32" Name="V3" format="ascii">
0.000000e+00
0.000000e+00
1.289400e-13
-3.042700e-13
1.289400e-13
-3.042700e-13
-7.693000e-14
-4.347100e-13
-7.693000e-14
-4.347100e-13
-4.496000e-14
-3.889300e-13
-4.496000e-14
-3.889300e-13
-4.080000e-15
-3.512000e-13
-4.080000e-15
-3.512000e-13
2.490000e-14
-3.311200e-13
2.490000e-14
-3.311200e-13
4.830000e-14
-3.197100e-13
4.830000e-14
-3.197100e-13
6.782000e-14
-3.123000e-13
6.782000e-14
-3.123000e-13
8.570000e-14
-3.083600e-13
8.570000e-14
-3.083600e-13
1.039600e-13
-3.049200e-13
1.039600e-13
-3.049200e-13
1.208600e-13
-3.044900e-13
1.208600e-13
-3.044900e-13
1.371200e-13
-3.051800e-13
1.371200e-13
-3.051800e-13
1.532600e-13
-3.075700e-13
1.532600e-13
-3.075700e-13
1.681700e-13
-3.148300e-13
1.681700e-13
-3.148300e-13
1.822600e-13
-3.243000e-13
1.822600e-13
-3.243000e-13
1.959000e-13
-3.368600e-13
1.959000e-13
-3.368600e-13
2.072600e-13
-3.554500e-13
2.072600e-13
-3.554500e-13
2.185800e-13
-3.767400e-13
2.185800e-13
-3.767400e-13
2.247900e-13
-4.049800e-13
2.247900e-13
-4.049800e-13
2.255600e-13
-4.394400e-13
2.255600e-13
-4.394400e-13
2.216300e-13
-4.794400e-13
2.216300e-13
-4.794400e-13
2.098100e-13
-5.255400e-13
2.098100e-13
-5.255400e-13
1.876200e-13
-5.774000e-13
1.876200e-13
-5.774000e-13
1.517200e-13
-6.341100e-13
1.517200e-13
-6.341100e-13
9.962000e-14
-6.929500e-13
9.962000e-14
-6.929500e-13
2.851000e-14
-7.533900e-13
2.851000e-14
-7.533900e-13
-6.778000e-14
-8.118800e-13
-6.778000e-14
-8.118800e-13
-1.929700e-13
-8.630900e-13
-1.929700e-13
-8.630900e-13
-3.051400e-13
-8.537200e-13
-3.051400e-13
-8.537200e-13
-1.132800e-13
-5.019000e-13
-1.132800e-13
-5.019000e-13
0.000000e+00
0.000000e+00
</DataArray>
<DataArray type="Float32" Name="V4" format="ascii">
8.500000e-01
1.000000e+00
8.500000e-01
1.000000e+00
8.500000e-01
1.000000e+00
8.500000e-01
1.000000e+00
8.500000e-01
1.000000e+00
8.500000e-01
1.000000e+00
8.500000e-01
1.000000e+00
8.500000e-01
1.000000e+00
8.500000e-01
1.000000e+00
8.500000e-01
1.000000e+00
8.500000e-01
1.000000e+00
8.500000e-01
1.000000e+00
8.500000e-01
1.000000e+00
8.500000e-01
1.000000e+00
8.500000e-01
1.000000e+00
8.500000e-01
1.000000e+00
8.500000e-01
1.000000e+00
8.500000e-01
1.000000e+00
8.500000e-01
1.000000e+00
8.500000e-01
1.000000e+00
8.500000e-01
1.000000e+00
8.500000e-01
1.000000e+00
8.500000e-01
1.000000e+00
8.500000e-01
1.000000e+00
8.500000e-01
1.000000e+00
8.500000e-01
1.000000e+00
8.500000e-01
1.000000e+00
8.500000e-01
1.000000e+00
8.500000e-01
1.000000e+00
8.500000e-01
1.000000e+00
8.500000e-01
1.000000e+00
8.500000e-01
1.000000e+00
8.500000e-01
1.000000e+00
8.500000e-01
1.000000e+00
8.500000e-01
1.000000e+00
8.500000e-01
1.000000e+00
8.500000e-01
1.000000e+00
8.500000e-01
1.000000e+00
8.500000e-01
1.000000e+00
8.500000e-01
1.000000e+00
8.500000e-01
1.000000e+00
8.500000e-01
1.000000e+00
8.500000e-01
1.000000e+00
8.500000e-01
1.000000e+00
8.500000e-01
1.000000e+00
8.500000e-01
1.000000e+00
8.500000e-01
1.000000e+00
8.500000e-01
1.000000e+00
8.500000e-01
1.000000e+00
8.500000e-01
1.000000e+00
8.500000e-01
1.000000e+00
8.500000e-01
1.000000e+00
8.500000e-01
1.000000e+00
8.500000e-01
1.000000e+00
8.500000e-01
1.000000e+00
8.500000e-01
1.000000e+00
8.500000e-01
1.000000e+00
8.500000e-01
1.000000e+00
8.500000e-01
1.000000e+00
8.500000e-01
1.000000e+00
</DataArray>
<DataArray type="Float32" Name="V5" format="ascii">
0.000000e+00
0.000000e+00
5.235988e-02
5.235988e-02
5.235988e-02
5.235988e-02
1.047198e-01
1.047198e-01
1.047198e-01
1.047198e-01
1.570796e-01
1.570796e-01
1.570796e-01
1.570796e-01
2.094395e-01
2.094395e-01
2.094395e-01
2.094395e-01
2.617994e-01
2.617994e-01
2.617994e-01
2.617994e-01
3.141593e-01
3.141593e-01
3.141593e-01
3.141593e-01
3.665191e-01
3.665191e-01
3.665191e-01
3.665191e-01
4.188790e-01
4.188790e-01
4.188790e-01
4.188790e-01
4.712389e-01
4.712389e-01
4.712389e-01
4.712389e-01
5.235988e-01
5.235988e-01
5.235988e-01
5.235988e-01
5.759587e-01
5.759587e-01
5.759587e-01
5.759587e-01
6.283185e-01
6.283185e-01
6.283185e-01
6.283185e-01
6.806784e-01
6.806784e-01
6.806784e-01
6.806784e-01
7.330383e-01
7.330383e-01
7.330383e-01
7.330383e-01
7.853982e-01
7.853982e-01
7.853982e-01
7.853982e-01
8.377580e-01
8.377580e-01
8.377580e-01
8.377580e-01
8.901179e-01
8.901179e-01
8.901179e-01
8.901179e-01
9.424778e-01
9.424778e-01
9.424778e-01
9.424778e-01
9.948377e-01
9.948377e-01
9.948377e-01
9.948377e-01
1.047198e+00
1.047198e+00
1.047198e+00
1.047198e+00
1.099557e+00
1.099557e+00
1.099557e+00
1.099557e+00
1.151917e+00
1.151917e+00
1.151917e+00
1.151917e+00
1.204277e+00
1.204277e+00
1.204277e+00
1.204277e+00
1.256637e+00
1.256637e+00
1.256637e+00
1.256637e+00
1.308997e+00
1.308997e+00
1.308997e+00
1.308997e+00
1.361357e+00
1.361357e+00
1.361357e+00
1.361357e+00
1.413717e+00
1.413717e+00
1.413717e+00
1.413717e+00
1.466077e+00
1.466077e+00
1.466077e+00
1.466077e+00
1.518436e+00
1.518436e+00
1.518436e+00
1.518436e+00
1.570796e+00
1.570796e+00
</DataArray>
</PointData>
</Piece></UnstructuredGrid>
</VTKFile>
