<?xml version="1.0"?>
<VTKFile type="UnstructuredGrid" version="0.1" byte_order="LittleEndian" compressor="vtkZLibDataCompressor">
<UnstructuredGrid>
<Piece NumberOfPoints="120" NumberOfCells="30">
<Points>
<DataArray type="Float32" NumberOfComponents="3" format="ascii">
0.000000e+00 7.834864e-01 0.000000e+00
0.000000e+00 8.900000e-01 0.000000e+00
5.760279e-02 7.835480e-01 0.000000e+00
5.751309e-02 8.900000e-01 0.000000e+00
5.760279e-02 7.835480e-01 0.000000e+00
5.751309e-02 8.900000e-01 0.000000e+00
1.152020e-01 7.837118e-01 0.000000e+00
1.150405e-01 8.900000e-01 0.000000e+00
1.152020e-01 7.837118e-01 0.000000e+00
1.150405e-01 8.900000e-01 0.000000e+00
1.727874e-01 7.839920e-01 0.000000e+00
1.726069e-01 8.900000e-01 0.000000e+00
1.727874e-01 7.839920e-01 0.000000e+00
1.726069e-01 8.900000e-01 0.000000e+00
2.303373e-01 7.843997e-01 0.000000e+00
2.302573e-01 8.900000e-01 0.000000e+00
2.303373e-01 7.843997e-01 0.000000e+00
2.302573e-01 8.900000e-01 0.000000e+00
2.878023e-01 7.849497e-01 0.000000e+00
2.880769e-01 8.900000e-01 0.000000e+00
2.878023e-01 7.849497e-01 0.000000e+00
2.880769e-01 8.900000e-01 0.000000e+00
3.450761e-01 7.856499e-01 0.000000e+00
3.462145e-01 8.900000e-01 0.000000e+00
3.450761e-01 7.856499e-01 0.000000e+00
3.462145e-01 8.900000e-01 0.000000e+00
4.019422e-01 7.864620e-01 0.000000e+00
4.048954e-01 8.900000e-01 0.000000e+00
4.019422e-01 7.864620e-01 0.000000e+00
4.048954e-01 8.900000e-01 0.000000e+00
4.579902e-01 7.871718e-01 0.000000e+00
4.643650e-01 8.900000e-01 0.000000e+00
4.579902e-01 7.871718e-01 0.000000e+00
4.643650e-01 8.900000e-01 0.000000e+00
5.126356e-01 7.871310e-01 0.000000e+00
5.245343e-01 8.900000e-01 0.000000e+00
5.126356e-01 7.871310e-01 0.000000e+00
5.245343e-01 8.900000e-01 0.000000e+00
5.664564e-01 7.848755e-01 0.000000e+00
5.839770e-01 8.878184e-01 0.000000e+00
5.664564e-01 7.848755e-01 0.000000e+00
5.839770e-01 8.878184e-01 0.000000e+00
6.185001e-01 7.771210e-01 0.000000e+00
6.430150e-01 8.775604e-01 0.000000e+00
6.185001e-01 7.771210e-01 0.000000e+00
6.430150e-01 8.775604e-01 0.000000e+00
6.689550e-01 7.643655e-01 0.000000e+00
7.014215e-01 8.614712e-01 0.000000e+00
6.689550e-01 7.643655e-01 0.000000e+00
7.014215e-01 8.614712e-01 0.000000e+00
7.178568e-01 7.465654e-01 0.000000e+00
7.582386e-01 8.397052e-01 0.000000e+00
7.178568e-01 7.465654e-01 0.000000e+00
7.582386e-01 8.397052e-01 0.000000e+00
7.650305e-01 7.241330e-01 0.000000e+00
8.128721e-01 8.127914e-01 0.000000e+00
7.650305e-01 7.241330e-01 0.000000e+00
8.128721e-01 8.127914e-01 0.000000e+00
8.102588e-01 6.974399e-01 0.000000e+00
8.649278e-01 7.812450e-01 0.000000e+00
8.102588e-01 6.974399e-01 0.000000e+00
8.649278e-01 7.812450e-01 0.000000e+00
8.533335e-01 6.668635e-01 0.000000e+00
9.141578e-01 7.455585e-01 0.000000e+00
8.533335e-01 6.668635e-01 0.000000e+00
9.141578e-01 7.455585e-01 0.000000e+00
8.940679e-01 6.327644e-01 0.000000e+00
9.603973e-01 7.061759e-01 0.000000e+00
8.940679e-01 6.327644e-01 0.000000e+00
9.603973e-01 7.061759e-01 0.000000e+00
9.323005e-01 5.954832e-01 0.000000e+00
1.003531e+00 6.634937e-01 0.000000e+00
9.323005e-01 5.954832e-01 0.000000e+00
1.003531e+00 6.634937e-01 0.000000e+00
9.678932e-01 5.553384e-01 0.000000e+00
1.043472e+00 6.178662e-01 0.000000e+00
9.678932e-01 5.553384e-01 0.000000e+00
1.043472e+00 6.178662e-01 0.000000e+00
1.000728e+00 5.126279e-01 0.000000e+00
1.080152e+00 5.696137e-01 0.000000e+00
1.000728e+00 5.126279e-01 0.000000e+00
1.080152e+00 5.696137e-01 0.000000e+00
1.030705e+00 4.676309e-01 0.000000e+00
1.113511e+00 5.190295e-01 0.000000e+00
1.030705e+00 4.676309e-01 0.000000e+00
1.113511e+00 5.190295e-01 0.000000e+00
1.057737e+00 4.206114e-01 0.000000e+00
1.143498e+00 4.663862e-01 0.000000e+00
1.057737e+00 4.206114e-01 0.000000e+00
1.143498e+00 4.663862e-01 0.000000e+00
1.081751e+00 3.718200e-01 0.000000e+00
1.170068e+00 4.119402e-01 0.000000e+00
1.081751e+00 3.718200e-01 0.000000e+00
1.170068e+00 4.119402e-01 0.000000e+00
1.102685e+00 3.214970e-01 0.000000e+00
1.193180e+00 3.559362e-01 0.000000e+00
1.102685e+00 3.214970e-01 0.000000e+00
1.193180e+00 3.559362e-01 0.000000e+00
1.120485e+00 2.698742e-01 0.000000e+00
1.212798e+00 2.986096e-01 0.000000e+00
1.120485e+00 2.698742e-01 0.000000e+00
1.212798e+00 2.986096e-01 0.000000e+00
1.135107e+00 2.171770e-01 0.000000e+00
1.228892e+00 2.401893e-01 0.000000e+00
1.135107e+00 2.171770e-01 0.000000e+00
1.228892e+00 2.401893e-01 0.000000e+00
1.146515e+00 1.636256e-01 0.000000e+00
1.241437e+00 1.808991e-01 0.000000e+00
1.146515e+00 1.636256e-01 0.000000e+00
1.241437e+00 1.808991e-01 0.000000e+00
1.154684e+00 1.094367e-01 0.000000e+00
1.250412e+00 1.209591e-01 0.000000e+00
1.154684e+00 1.094367e-01 0.000000e+00
1.250412e+00 1.209591e-01 0.000000e+00
1.159593e+00 5.482404e-02 0.000000e+00
1.255803e+00 6.058734e-02 0.000000e+00
1.159593e+00 5.482404e-02 0.000000e+00
1.255803e+00 6.058734e-02 0.000000e+00
1.161230e+00 5.686070e-12 0.000000e+00
1.257601e+00 6.157950e-12 0.000000e+00
</DataArray>
</Points>
<Cells>
<DataArray type="Int32" Name="connectivity" format="ascii">
0 1 3 2
4 5 7 6
8 9 11 10
12 13 15 14
16 17 19 18
20 21 23 22
24 25 27 26
28 29 31 30
32 33 35 34
36 37 39 38
40 41 43 42
44 45 47 46
48 49 51 50
52 53 55 54
56 57 59 58
60 61 63 62
64 65 67 66
68 69 71 70
72 73 75 74
76 77 79 78
80 81 83 82
84 85 87 86
88 89 91 90
92 93 95 94
96 97 99 98
100 101 103 102
104 105 107 106
108 109 111 110
112 113 115 114
116 117 119 118
</DataArray>
<DataArray type="Int32" Name="offsets" format="ascii">
4
8
12
16
20
24
28
32
36
40
44
48
52
56
60
64
68
72
76
80
84
88
92
96
100
104
108
112
116
120
</DataArray>
<DataArray type="UInt8" Name="types" format="ascii">
9
9
9
9
9
9
9
9
9
9
9
9
9
9
9
9
9
9
9
9
9
9
9
9
9
9
9
9
9
9
</DataArray>
</Cells>
<PointData>
<DataArray type="Float32" Name="V1" format="ascii">
1.406921e+01
-1.975202e-01
1.408994e+01
-1.767916e-01
1.410889e+01
-1.910481e-01
1.416267e+01
-1.372643e-01
1.419867e+01
-1.631113e-01
1.428881e+01
-7.297149e-02
1.432968e+01
-1.036641e-01
1.445654e+01
2.319294e-02
1.447694e+01
4.717706e-03
1.464288e+01
1.706499e-01
1.458760e+01
2.023452e-01
1.480127e+01
4.160139e-01
1.455842e+01
5.780903e-01
1.484574e+01
8.654139e-01
1.420677e+01
1.317531e+00
1.464416e+01
1.754921e+00
1.324383e+01
2.816930e+00
1.404580e+01
3.618906e+00
1.159480e+01
5.982526e+00
1.269485e+01
7.082581e+00
1.118814e+01
8.088039e+00
1.163779e+01
8.537690e+00
1.111591e+01
8.958327e+00
1.153459e+01
9.377004e+00
1.133916e+01
9.544425e+00
1.174233e+01
9.947595e+00
1.174030e+01
9.952524e+00
1.211845e+01
1.033067e+01
1.221230e+01
1.025301e+01
1.255835e+01
1.059906e+01
1.269840e+01
1.048263e+01
1.301007e+01
1.079430e+01
1.316722e+01
1.066439e+01
1.344480e+01
1.094197e+01
1.360291e+01
1.081233e+01
1.384814e+01
1.105757e+01
1.399844e+01
1.093535e+01
1.421367e+01
1.115058e+01
1.435176e+01
1.103916e+01
1.453951e+01
1.122691e+01
1.466346e+01
1.112757e+01
1.482616e+01
1.129027e+01
1.493545e+01
1.120321e+01
1.507533e+01
1.134308e+01
1.517017e+01
1.126791e+01
1.528920e+01
1.138694e+01
1.537016e+01
1.132305e+01
1.547005e+01
1.142294e+01
1.553782e+01
1.136965e+01
1.562001e+01
1.145184e+01
1.567529e+01
1.140850e+01
1.574098e+01
1.147418e+01
1.578440e+01
1.144022e+01
1.583454e+01
1.149035e+01
1.586663e+01
1.146529e+01
1.590193e+01
1.150059e+01
1.592310e+01
1.148408e+01
1.594408e+01
1.150506e+01
1.595459e+01
1.149687e+01
1.596155e+01
1.150383e+01
</DataArray>
<DataArray type="Float32" Name="V2" format="ascii">
7.834864e-01
8.900000e-01
7.854889e-01
8.917903e-01
7.854889e-01
8.917903e-01
7.914605e-01
8.971495e-01
7.914605e-01
8.971495e-01
8.013697e-01
9.060443e-01
8.013697e-01
9.060443e-01
8.151485e-01
9.184245e-01
8.151485e-01
9.184245e-01
8.326919e-01
9.342338e-01
8.326919e-01
9.342338e-01
8.538319e-01
9.534265e-01
8.538319e-01
9.534265e-01
8.782687e-01
9.759881e-01
8.782687e-01
9.759881e-01
9.053986e-01
1.001930e+00
9.053986e-01
1.001930e+00
9.340705e-01
1.031129e+00
9.340705e-01
1.031129e+00
9.629504e-01
1.060862e+00
9.629504e-01
1.060862e+00
9.886078e-01
1.086195e+00
9.886078e-01
1.086195e+00
1.011587e+00
1.109230e+00
1.011587e+00
1.109230e+00
1.031952e+00
1.129748e+00
1.031952e+00
1.129748e+00
1.050041e+00
1.147939e+00
1.050041e+00
1.147939e+00
1.066104e+00
1.164020e+00
1.066104e+00
1.164020e+00
1.080369e+00
1.178228e+00
1.080369e+00
1.178228e+00
1.093033e+00
1.190780e+00
1.093033e+00
1.190780e+00
1.104263e+00
1.201865e+00
1.104263e+00
1.201865e+00
1.114203e+00
1.211644e+00
1.114203e+00
1.211644e+00
1.122970e+00
1.220246e+00
1.122970e+00
1.220246e+00
1.130665e+00
1.227780e+00
1.130665e+00
1.227780e+00
1.137369e+00
1.234334e+00
1.137369e+00
1.234334e+00
1.143150e+00
1.239978e+00
1.143150e+00
1.239978e+00
1.148064e+00
1.244771e+00
1.148064e+00
1.244771e+00
1.152154e+00
1.248759e+00
1.152154e+00
1.248759e+00
1.155455e+00
1.251976e+00
1.155455e+00
1.251976e+00
1.157997e+00
1.254452e+00
1.157997e+00
1.254452e+00
1.159798e+00
1.256206e+00
1.159798e+00
1.256206e+00
1.160873e+00
1.257253e+00
1.160873e+00
1.257253e+00
1.161230e+00
1.257601e+00
</DataArray>
<DataArray type="Float32" Name="V3" format="ascii">
0.000000e+00
0.000000e+00
1.651611e-02
1.085527e-02
1.651611e-02
1.085527e-02
3.265076e-02
2.137997e-02
3.265076e-02
2.137997e-02
4.801674e-02
3.125514e-02
4.801674e-02
3.125514e-02
6.221800e-02
4.018421e-02
6.221800e-02
4.018421e-02
7.483572e-02
4.791196e-02
7.483572e-02
4.791196e-02
8.540770e-02
5.424439e-02
8.540770e-02
5.424439e-02
9.340263e-02
5.905498e-02
9.340263e-02
5.905498e-02
9.822327e-02
6.222292e-02
9.822327e-02
6.222292e-02
9.941169e-02
6.331195e-02
9.941169e-02
6.331195e-02
9.812791e-02
6.182969e-02
9.812791e-02
6.182969e-02
9.546737e-02
6.132411e-02
9.546737e-02
6.132411e-02
9.191322e-02
6.110184e-02
9.191322e-02
6.110184e-02
8.805072e-02
6.081849e-02
8.805072e-02
6.081849e-02
8.398891e-02
6.021813e-02
8.398891e-02
6.021813e-02
7.977500e-02
5.917270e-02
7.977500e-02
5.917270e-02
7.541542e-02
5.763302e-02
7.541542e-02
5.763302e-02
7.090486e-02
5.559580e-02
7.090486e-02
5.559580e-02
6.623645e-02
5.308301e-02
6.623645e-02
5.308301e-02
6.140644e-02
5.012951e-02
6.140644e-02
5.012951e-02
5.641537e-02
4.677590e-02
5.641537e-02
4.677590e-02
5.126804e-02
4.306455e-02
5.126804e-02
4.306455e-02
4.597287e-02
3.903749e-02
4.597287e-02
3.903749e-02
4.054121e-02
3.473542e-02
4.054121e-02
3.473542e-02
3.498661e-02
3.019733e-02
3.498661e-02
3.019733e-02
2.932431e-02
2.546046e-02
2.932431e-02
2.546046e-02
2.357080e-02
2.056048e-02
2.357080e-02
2.056048e-02
1.774343e-02
1.553166e-02
1.774343e-02
1.553166e-02
1.186019e-02
1.040716e-02
1.186019e-02
1.040716e-02
5.939490e-03
5.219344e-03
5.939490e-03
5.219344e-03
0.000000e+00
0.000000e+00
</DataArray>
<DataArray type="Float32" Name="V4" format="ascii">
8.500000e-01
1.000000e+00
8.500000e-01
1.000000e+00
8.500000e-01
1.000000e+00
8.500000e-01
1.000000e+00
8.500000e-01
1.000000e+00
8.500000e-01
1.000000e+00
8.500000e-01
1.000000e+00
8.500000e-01
1.000000e+00
8.500000e-01
1.000000e+00
8.500000e-01
1.000000e+00
8.500000e-01
1.000000e+00
8.500000e-01
1.000000e+00
8.500000e-01
1.000000e+00
8.500000e-01
1.000000e+00
8.500000e-01
1.000000e+00
8.500000e-01
1.000000e+00
8.500000e-01
1.000000e+00
8.500000e-01
1.000000e+00
8.500000e-01
1.000000e+00
8.500000e-01
1.000000e+00
8.500000e-01
1.000000e+00
8.500000e-01
1.000000e+00
8.500000e-01
1.000000e+00
8.500000e-01
1.000000e+00
8.500000e-01
1.000000e+00
8.500000e-01
1.000000e+00
8.500000e-01
1.000000e+00
8.500000e-01
1.000000e+00
8.500000e-01
1.000000e+00
8.500000e-01
1.000000e+00
8.500000e-01
1.000000e+00
8.500000e-01
1.000000e+00
8.500000e-01
1.000000e+00
8.500000e-01
1.000000e+00
8.500000e-01
1.000000e+00
8.500000e-01
1.000000e+00
8.500000e-01
1.000000e+00
8.500000e-01
1.000000e+00
8.500000e-01
1.000000e+00
8.500000e-01
1.000000e+00
8.500000e-01
1.000000e+00
8.500000e-01
1.000000e+00
8.500000e-01
1.000000e+00
8.500000e-01
1.000000e+00
8.500000e-01
1.000000e+00
8.500000e-01
1.000000e+00
8.500000e-01
1.000000e+00
8.500000e-01
1.000000e+00
8.500000e-01
1.000000e+00
8.500000e-01
1.000000e+00
8.500000e-01
1.000000e+00
8.500000e-01
1.000000e+00
8.500000e-01
1.000000e+00
8.500000e-01
1.000000e+00
8.500000e-01
1.000000e+00
8.500000e-01
1.000000e+00
8.500000e-01
1.000000e+00
8.500000e-01
1.000000e+00
8.500000e-01
1.000000e+00
8.500000e-01
1.000000e+00
</DataArray>
<DataArray type="Float32" Name="V5" format="ascii">
0.000000e+00
0.000000e+00
5.235988e-02
5.235988e-02
5.235988e-02
5.235988e-02
1.047198e-01
1.047198e-01
1.047198e-01
1.047198e-01
1.570796e-01
1.570796e-01
1.570796e-01
1.570796e-01
2.094395e-01
2.094395e-01
2.094395e-01
2.094395e-01
2.617994e-01
2.617994e-01
2.617994e-01
2.617994e-01
3.141593e-01
3.141593e-01
3.141593e-01
3.141593e-01
3.665191e-01
3.665191e-01
3.665191e-01
3.665191e-01
4.188790e-01
4.188790e-01
4.188790e-01
4.188790e-01
4.712389e-01
4.712389e-01
4.712389e-01
4.712389e-01
5.235988e-01
5.235988e-01
5.235988e-01
5.235988e-01
5.759587e-01
5.759587e-01
5.759587e-01
5.759587e-01
6.283185e-01
6.283185e-01
6.283185e-01
6.283185e-01
6.806784e-01
6.806784e-01
6.806784e-01
6.806784e-01
7.330383e-01
7.330383e-01
7.330383e-01
7.330383e-01
7.853982e-01
7.853982e-01
7.853982e-01
7.853982e-01
8.377580e-01
8.377580e-01
8.377580e-01
8.377580e-01
8.901179e-01
8.901179e-01
8.901179e-01
8.901179e-01
9.424778e-01
9.424778e-01
9.424778e-01
9.424778e-01
9.948377e-01
9.948377e-01
9.948377e-01
9.948377e-01
1.047198e+00
1.047198e+00
1.047198e+00
1.047198e+00
1.099557e+00
1.099557e+00
1.099557e+00
1.099557e+00
1.151917e+00
1.151917e+00
1.151917e+00
1.151917e+00
1.204277e+00
1.204277e+00
1.204277e+00
1.204277e+00
1.256637e+00
1.256637e+00
1.256637e+00
1.256637e+00
1.308997e+00
1.308997e+00
1.308997e+00
1.308997e+00
1.361357e+00
1.361357e+00
1.361357e+00
1.361357e+00
1.413717e+00
1.413717e+00
1.413717e+00
1.413717e+00
1.466077e+00
1.466077e+00
1.466077e+00
1.466077e+00
1.518436e+00
1.518436e+00
1.518436e+00
1.518436e+00
1.570796e+00
1.570796e+00
</DataArray>
</PointData>
</Piece></UnstructuredGrid>
</VTKFile>
