<?xml version="1.0"?>
<VTKFile type="UnstructuredGrid" version="0.1" byte_order="LittleEndian" compressor="vtkZLibDataCompressor">
<UnstructuredGrid>
<Piece NumberOfPoints="120" NumberOfCells="30">
<Points>
<DataArray type="Float32" NumberOfComponents="3" format="ascii">
0.000000e+00 5.300917e-01 0.000000e+00
0.000000e+00 6.100000e-01 0.000000e+00
6.647445e-02 5.301366e-01 0.000000e+00
6.640430e-02 6.100000e-01 0.000000e+00
6.647445e-02 5.301366e-01 0.000000e+00
6.640430e-02 6.100000e-01 0.000000e+00
1.329445e-01 5.302330e-01 0.000000e+00
1.328032e-01 6.100000e-01 0.000000e+00
1.329445e-01 5.302330e-01 0.000000e+00
1.328032e-01 6.100000e-01 0.000000e+00
1.994028e-01 5.303936e-01 0.000000e+00
1.991918e-01 6.100000e-01 0.000000e+00
1.994028e-01 5.303936e-01 0.000000e+00
1.991918e-01 6.100000e-01 0.000000e+00
2.658432e-01 5.306176e-01 0.000000e+00
2.655643e-01 6.100000e-01 0.000000e+00
2.658432e-01 5.306176e-01 0.000000e+00
2.655643e-01 6.100000e-01 0.000000e+00
3.322592e-01 5.309042e-01 0.000000e+00
3.319153e-01 6.100000e-01 0.000000e+00
3.322592e-01 5.309042e-01 0.000000e+00
3.319153e-01 6.100000e-01 0.000000e+00
3.986431e-01 5.312523e-01 0.000000e+00
3.982390e-01 6.100000e-01 0.000000e+00
3.986431e-01 5.312523e-01 0.000000e+00
3.982390e-01 6.100000e-01 0.000000e+00
4.649863e-01 5.316606e-01 0.000000e+00
4.645303e-01 6.100000e-01 0.000000e+00
4.649863e-01 5.316606e-01 0.000000e+00
4.645303e-01 6.100000e-01 0.000000e+00
5.312783e-01 5.321281e-01 0.000000e+00
5.307848e-01 6.100000e-01 0.000000e+00
5.312783e-01 5.321281e-01 0.000000e+00
5.307848e-01 6.100000e-01 0.000000e+00
5.975060e-01 5.326533e-01 0.000000e+00
5.970009e-01 6.100000e-01 0.000000e+00
5.975060e-01 5.326533e-01 0.000000e+00
5.970009e-01 6.100000e-01 0.000000e+00
6.636517e-01 5.332354e-01 0.000000e+00
6.631819e-01 6.100000e-01 0.000000e+00
6.636517e-01 5.332354e-01 0.000000e+00
6.631819e-01 6.100000e-01 0.000000e+00
7.296903e-01 5.338741e-01 0.000000e+00
7.293423e-01 6.100000e-01 0.000000e+00
7.296903e-01 5.338741e-01 0.000000e+00
7.293423e-01 6.100000e-01 0.000000e+00
7.955830e-01 5.345698e-01 0.000000e+00
7.955171e-01 6.100000e-01 0.000000e+00
7.955830e-01 5.345698e-01 0.000000e+00
7.955171e-01 6.100000e-01 0.000000e+00
8.612661e-01 5.353242e-01 0.000000e+00
8.617798e-01 6.100000e-01 0.000000e+00
8.612661e-01 5.353242e-01 0.000000e+00
8.617798e-01 6.100000e-01 0.000000e+00
9.266280e-01 5.361381e-01 0.000000e+00
9.282724e-01 6.100000e-01 0.000000e+00
9.266280e-01 5.361381e-01 0.000000e+00
9.282724e-01 6.100000e-01 0.000000e+00
9.914605e-01 5.370039e-01 0.000000e+00
9.952463e-01 6.100000e-01 0.000000e+00
9.914605e-01 5.370039e-01 0.000000e+00
9.952463e-01 6.100000e-01 0.000000e+00
1.055350e+00 5.378550e-01 0.000000e+00
1.063074e+00 6.100000e-01 0.000000e+00
1.055350e+00 5.378550e-01 0.000000e+00
1.063074e+00 6.100000e-01 0.000000e+00
1.117623e+00 5.384281e-01 0.000000e+00
1.131746e+00 6.100000e-01 0.000000e+00
1.117623e+00 5.384281e-01 0.000000e+00
1.131746e+00 6.100000e-01 0.000000e+00
1.178574e+00 5.358041e-01 0.000000e+00
1.197818e+00 6.059153e-01 0.000000e+00
1.178574e+00 5.358041e-01 0.000000e+00
1.197818e+00 6.059153e-01 0.000000e+00
1.236470e+00 5.217930e-01 0.000000e+00
1.262428e+00 5.884150e-01 0.000000e+00
1.236470e+00 5.217930e-01 0.000000e+00
1.262428e+00 5.884150e-01 0.000000e+00
1.290794e+00 4.990568e-01 0.000000e+00
1.324212e+00 5.611685e-01 0.000000e+00
1.290794e+00 4.990568e-01 0.000000e+00
1.324212e+00 5.611685e-01 0.000000e+00
1.340955e+00 4.684513e-01 0.000000e+00
1.381441e+00 5.252111e-01 0.000000e+00
1.340955e+00 4.684513e-01 0.000000e+00
1.381441e+00 5.252111e-01 0.000000e+00
1.386515e+00 4.311815e-01 0.000000e+00
1.433222e+00 4.819970e-01 0.000000e+00
1.386515e+00 4.311815e-01 0.000000e+00
1.433222e+00 4.819970e-01 0.000000e+00
1.427138e+00 3.882953e-01 0.000000e+00
1.479084e+00 4.328299e-01 0.000000e+00
1.427138e+00 3.882953e-01 0.000000e+00
1.479084e+00 4.328299e-01 0.000000e+00
1.462594e+00 3.407451e-01 0.000000e+00
1.518821e+00 3.788482e-01 0.000000e+00
1.462594e+00 3.407451e-01 0.000000e+00
1.518821e+00 3.788482e-01 0.000000e+00
1.492735e+00 2.893836e-01 0.000000e+00
1.552369e+00 3.210228e-01 0.000000e+00
1.492735e+00 2.893836e-01 0.000000e+00
1.552369e+00 3.210228e-01 0.000000e+00
1.517468e+00 2.349769e-01 0.000000e+00
1.579737e+00 2.601834e-01 0.000000e+00
1.517468e+00 2.349769e-01 0.000000e+00
1.579737e+00 2.601834e-01 0.000000e+00
1.536740e+00 1.782183e-01 0.000000e+00
1.600961e+00 1.970495e-01 0.000000e+00
1.536740e+00 1.782183e-01 0.000000e+00
1.600961e+00 1.970495e-01 0.000000e+00
1.550520e+00 1.197442e-01 0.000000e+00
1.616083e+00 1.322592e-01 0.000000e+00
1.550520e+00 1.197442e-01 0.000000e+00
1.616083e+00 1.322592e-01 0.000000e+00
1.558792e+00 6.014899e-02 0.000000e+00
1.625141e+00 6.639407e-02 0.000000e+00
1.558792e+00 6.014899e-02 0.000000e+00
1.625141e+00 6.639407e-02 0.000000e+00
1.561551e+00 7.646270e-12 0.000000e+00
1.628157e+00 7.972420e-12 0.000000e+00
</DataArray>
</Points>
<Cells>
<DataArray type="Int32" Name="connectivity" format="ascii">
0 1 3 2
4 5 7 6
8 9 11 10
12 13 15 14
16 17 19 18
20 21 23 22
24 25 27 26
28 29 31 30
32 33 35 34
36 37 39 38
40 41 43 42
44 45 47 46
48 49 51 50
52 53 55 54
56 57 59 58
60 61 63 62
64 65 67 66
68 69 71 70
72 73 75 74
76 77 79 78
80 81 83 82
84 85 87 86
88 89 91 90
92 93 95 94
96 97 99 98
100 101 103 102
104 105 107 106
108 109 111 110
112 113 115 114
116 117 119 118
</DataArray>
<DataArray type="Int32" Name="offsets" format="ascii">
4
8
12
16
20
24
28
32
36
40
44
48
52
56
60
64
68
72
76
80
84
88
92
96
100
104
108
112
116
120
</DataArray>
<DataArray type="UInt8" Name="types" format="ascii">
9
9
9
9
9
9
9
9
9
9
9
9
9
9
9
9
9
9
9
9
9
9
9
9
9
9
9
9
9
9
</DataArray>
</Cells>
<PointData>
<DataArray type="Float32" Name="V1" format="ascii">
4.021978e+01
-4.784261e-01
4.026744e+01
-4.307623e-01
4.034462e+01
-4.805965e-01
4.047719e+01
-3.480247e-01
4.063415e+01
-4.500633e-01
4.085889e+01
-2.253218e-01
4.109490e+01
-3.809011e-01
4.141418e+01
-6.162053e-02
4.173171e+01
-2.722391e-01
4.214921e+01
1.452622e-01
4.255121e+01
-1.223450e-01
4.307198e+01
3.984303e-01
4.356163e+01
7.157842e-02
4.419229e+01
7.022358e-01
4.477235e+01
3.139375e-01
4.552136e+01
1.062946e+00
4.619284e+01
6.117896e-01
4.707104e+01
1.489993e+00
4.783052e+01
9.768614e-01
4.885200e+01
1.998339e+00
4.968620e+01
1.429436e+00
5.086976e+01
2.612993e+00
5.174500e+01
2.005990e+00
5.311677e+01
3.377767e+00
5.395819e+01
2.774415e+00
5.555608e+01
4.372308e+00
5.620815e+01
3.865098e+00
5.808834e+01
5.745290e+00
5.824200e+01
5.536533e+00
6.048569e+01
7.780217e+00
5.954973e+01
8.317277e+00
6.227633e+01
1.104388e+01
5.906647e+01
1.349672e+01
6.261632e+01
1.704657e+01
5.595251e+01
2.394348e+01
6.079816e+01
2.878912e+01
5.713616e+01
3.046118e+01
6.030462e+01
3.362963e+01
5.983058e+01
3.400274e+01
6.294883e+01
3.712099e+01
6.361656e+01
3.662472e+01
6.661943e+01
3.962759e+01
6.786951e+01
3.865222e+01
7.067566e+01
4.145837e+01
7.214541e+01
4.029196e+01
7.468326e+01
4.282981e+01
7.617159e+01
4.164751e+01
7.839724e+01
4.387316e+01
7.978398e+01
4.277725e+01
8.167434e+01
4.466761e+01
8.288853e+01
4.371494e+01
8.443399e+01
4.526041e+01
8.543439e+01
4.448106e+01
8.663295e+01
4.567962e+01
8.739633e+01
4.508851e+01
8.824957e+01
4.594174e+01
8.876347e+01
4.554560e+01
8.927399e+01
4.605612e+01
8.953220e+01
4.585763e+01
8.970211e+01
4.602754e+01
</DataArray>
<DataArray type="Float32" Name="V2" format="ascii">
5.300917e-01
6.100000e-01
5.328891e-01
6.126394e-01
5.328891e-01
6.126394e-01
5.412248e-01
6.205401e-01
5.412248e-01
6.205401e-01
5.550570e-01
6.336504e-01
5.550570e-01
6.336504e-01
5.742942e-01
6.518840e-01
5.742942e-01
6.518840e-01
5.988091e-01
6.751207e-01
5.988091e-01
6.751207e-01
6.284384e-01
7.032071e-01
6.284384e-01
7.032071e-01
6.629842e-01
7.359568e-01
6.629842e-01
7.359568e-01
7.022135e-01
7.731524e-01
7.022135e-01
7.731524e-01
7.458596e-01
8.145467e-01
7.458596e-01
8.145467e-01
7.936213e-01
8.598665e-01
7.936213e-01
8.598665e-01
8.451623e-01
9.088174e-01
8.451623e-01
9.088174e-01
9.001081e-01
9.610936e-01
9.001081e-01
9.610936e-01
9.580374e-01
1.016395e+00
9.580374e-01
1.016395e+00
1.018463e+00
1.074454e+00
1.018463e+00
1.074454e+00
1.080788e+00
1.135081e+00
1.080788e+00
1.135081e+00
1.144173e+00
1.198188e+00
1.144173e+00
1.198188e+00
1.207400e+00
1.263417e+00
1.207400e+00
1.263417e+00
1.268424e+00
1.325203e+00
1.268424e+00
1.325203e+00
1.321180e+00
1.379235e+00
1.321180e+00
1.379235e+00
1.367389e+00
1.427385e+00
1.367389e+00
1.427385e+00
1.407472e+00
1.469314e+00
1.407472e+00
1.469314e+00
1.442022e+00
1.505360e+00
1.442022e+00
1.505360e+00
1.471500e+00
1.535956e+00
1.471500e+00
1.535956e+00
1.496305e+00
1.561555e+00
1.496305e+00
1.561555e+00
1.516769e+00
1.582560e+00
1.516769e+00
1.582560e+00
1.533162e+00
1.599311e+00
1.533162e+00
1.599311e+00
1.545700e+00
1.612076e+00
1.545700e+00
1.612076e+00
1.554543e+00
1.621055e+00
1.554543e+00
1.621055e+00
1.559804e+00
1.626388e+00
1.559804e+00
1.626388e+00
1.561551e+00
1.628157e+00
</DataArray>
<DataArray type="Float32" Name="V3" format="ascii">
0.000000e+00
0.000000e+00
3.863815e-02
3.438836e-02
3.863815e-02
3.438836e-02
7.679182e-02
6.831336e-02
7.679182e-02
6.831336e-02
1.139760e-01
1.013144e-01
1.139760e-01
1.013144e-01
1.497123e-01
1.329350e-01
1.497123e-01
1.329350e-01
1.835296e-01
1.627259e-01
1.835296e-01
1.627259e-01
2.149661e-01
1.902474e-01
2.149661e-01
1.902474e-01
2.435719e-01
2.150719e-01
2.435719e-01
2.150719e-01
2.689109e-01
2.367867e-01
2.689109e-01
2.367867e-01
2.905622e-01
2.549975e-01
2.905622e-01
2.549975e-01
3.081216e-01
2.693324e-01
3.081216e-01
2.693324e-01
3.212011e-01
2.794481e-01
3.212011e-01
2.794481e-01
3.294279e-01
2.850379e-01
3.294279e-01
2.850379e-01
3.324391e-01
2.858432e-01
3.324391e-01
2.858432e-01
3.298724e-01
2.816711e-01
3.298724e-01
2.816711e-01
3.213494e-01
2.724103e-01
3.213494e-01
2.724103e-01
3.064632e-01
2.580173e-01
3.064632e-01
2.580173e-01
2.849057e-01
2.381716e-01
2.849057e-01
2.381716e-01
2.592740e-01
2.138638e-01
2.592740e-01
2.138638e-01
2.358177e-01
1.940812e-01
2.358177e-01
1.940812e-01
2.132011e-01
1.761197e-01
2.132011e-01
1.761197e-01
1.913878e-01
1.591945e-01
1.913878e-01
1.591945e-01
1.700427e-01
1.426179e-01
1.700427e-01
1.426179e-01
1.489355e-01
1.259748e-01
1.489355e-01
1.259748e-01
1.278986e-01
1.090354e-01
1.278986e-01
1.090354e-01
1.068251e-01
9.169851e-02
1.068251e-01
9.169851e-02
8.565733e-02
7.394803e-02
8.565733e-02
7.394803e-02
6.437496e-02
5.582192e-02
6.437496e-02
5.582192e-02
4.298526e-02
3.739197e-02
4.298526e-02
3.739197e-02
2.151433e-02
1.875020e-02
2.151433e-02
1.875020e-02
0.000000e+00
0.000000e+00
</DataArray>
<DataArray type="Float32" Name="V4" format="ascii">
8.500000e-01
1.000000e+00
8.500000e-01
1.000000e+00
8.500000e-01
1.000000e+00
8.500000e-01
1.000000e+00
8.500000e-01
1.000000e+00
8.500000e-01
1.000000e+00
8.500000e-01
1.000000e+00
8.500000e-01
1.000000e+00
8.500000e-01
1.000000e+00
8.500000e-01
1.000000e+00
8.500000e-01
1.000000e+00
8.500000e-01
1.000000e+00
8.500000e-01
1.000000e+00
8.500000e-01
1.000000e+00
8.500000e-01
1.000000e+00
8.500000e-01
1.000000e+00
8.500000e-01
1.000000e+00
8.500000e-01
1.000000e+00
8.500000e-01
1.000000e+00
8.500000e-01
1.000000e+00
8.500000e-01
1.000000e+00
8.500000e-01
1.000000e+00
8.500000e-01
1.000000e+00
8.500000e-01
1.000000e+00
8.500000e-01
1.000000e+00
8.500000e-01
1.000000e+00
8.500000e-01
1.000000e+00
8.500000e-01
1.000000e+00
8.500000e-01
1.000000e+00
8.500000e-01
1.000000e+00
8.500000e-01
1.000000e+00
8.500000e-01
1.000000e+00
8.500000e-01
1.000000e+00
8.500000e-01
1.000000e+00
8.500000e-01
1.000000e+00
8.500000e-01
1.000000e+00
8.500000e-01
1.000000e+00
8.500000e-01
1.000000e+00
8.500000e-01
1.000000e+00
8.500000e-01
1.000000e+00
8.500000e-01
1.000000e+00
8.500000e-01
1.000000e+00
8.500000e-01
1.000000e+00
8.500000e-01
1.000000e+00
8.500000e-01
1.000000e+00
8.500000e-01
1.000000e+00
8.500000e-01
1.000000e+00
8.500000e-01
1.000000e+00
8.500000e-01
1.000000e+00
8.500000e-01
1.000000e+00
8.500000e-01
1.000000e+00
8.500000e-01
1.000000e+00
8.500000e-01
1.000000e+00
8.500000e-01
1.000000e+00
8.500000e-01
1.000000e+00
8.500000e-01
1.000000e+00
8.500000e-01
1.000000e+00
8.500000e-01
1.000000e+00
8.500000e-01
1.000000e+00
8.500000e-01
1.000000e+00
</DataArray>
<DataArray type="Float32" Name="V5" format="ascii">
0.000000e+00
0.000000e+00
5.235988e-02
5.235988e-02
5.235988e-02
5.235988e-02
1.047198e-01
1.047198e-01
1.047198e-01
1.047198e-01
1.570796e-01
1.570796e-01
1.570796e-01
1.570796e-01
2.094395e-01
2.094395e-01
2.094395e-01
2.094395e-01
2.617994e-01
2.617994e-01
2.617994e-01
2.617994e-01
3.141593e-01
3.141593e-01
3.141593e-01
3.141593e-01
3.665191e-01
3.665191e-01
3.665191e-01
3.665191e-01
4.188790e-01
4.188790e-01
4.188790e-01
4.188790e-01
4.712389e-01
4.712389e-01
4.712389e-01
4.712389e-01
5.235988e-01
5.235988e-01
5.235988e-01
5.235988e-01
5.759587e-01
5.759587e-01
5.759587e-01
5.759587e-01
6.283185e-01
6.283185e-01
6.283185e-01
6.283185e-01
6.806784e-01
6.806784e-01
6.806784e-01
6.806784e-01
7.330383e-01
7.330383e-01
7.330383e-01
7.330383e-01
7.853982e-01
7.853982e-01
7.853982e-01
7.853982e-01
8.377580e-01
8.377580e-01
8.377580e-01
8.377580e-01
8.901179e-01
8.901179e-01
8.901179e-01
8.901179e-01
9.424778e-01
9.424778e-01
9.424778e-01
9.424778e-01
9.948377e-01
9.948377e-01
9.948377e-01
9.948377e-01
1.047198e+00
1.047198e+00
1.047198e+00
1.047198e+00
1.099557e+00
1.099557e+00
1.099557e+00
1.099557e+00
1.151917e+00
1.151917e+00
1.151917e+00
1.151917e+00
1.204277e+00
1.204277e+00
1.204277e+00
1.204277e+00
1.256637e+00
1.256637e+00
1.256637e+00
1.256637e+00
1.308997e+00
1.308997e+00
1.308997e+00
1.308997e+00
1.361357e+00
1.361357e+00
1.361357e+00
1.361357e+00
1.413717e+00
1.413717e+00
1.413717e+00
1.413717e+00
1.466077e+00
1.466077e+00
1.466077e+00
1.466077e+00
1.518436e+00
1.518436e+00
1.518436e+00
1.518436e+00
1.570796e+00
1.570796e+00
</DataArray>
</PointData>
</Piece></UnstructuredGrid>
</VTKFile>
