<?xml version="1.0"?>
<VTKFile type="UnstructuredGrid" version="0.1" byte_order="LittleEndian" compressor="vtkZLibDataCompressor">
<UnstructuredGrid>
<Piece NumberOfPoints="120" NumberOfCells="30">
<Points>
<DataArray type="Float32" NumberOfComponents="3" format="ascii">
0.000000e+00 6.794222e-01 0.000000e+00
0.000000e+00 7.800000e-01 0.000000e+00
5.927802e-02 6.794771e-01 0.000000e+00
5.917643e-02 7.800000e-01 0.000000e+00
5.927802e-02 6.794771e-01 0.000000e+00
5.917643e-02 7.800000e-01 0.000000e+00
1.185564e-01 6.796157e-01 0.000000e+00
1.183535e-01 7.800000e-01 0.000000e+00
1.185564e-01 6.796157e-01 0.000000e+00
1.183535e-01 7.800000e-01 0.000000e+00
1.778326e-01 6.798474e-01 0.000000e+00
1.775338e-01 7.800000e-01 0.000000e+00
1.778326e-01 6.798474e-01 0.000000e+00
1.775338e-01 7.800000e-01 0.000000e+00
2.371044e-01 6.801726e-01 0.000000e+00
2.367215e-01 7.800000e-01 0.000000e+00
2.371044e-01 6.801726e-01 0.000000e+00
2.367215e-01 7.800000e-01 0.000000e+00
2.963666e-01 6.805936e-01 0.000000e+00
2.959260e-01 7.800000e-01 0.000000e+00
2.963666e-01 6.805936e-01 0.000000e+00
2.959260e-01 7.800000e-01 0.000000e+00
3.556079e-01 6.811147e-01 0.000000e+00
3.551682e-01 7.800000e-01 0.000000e+00
3.556079e-01 6.811147e-01 0.000000e+00
3.551682e-01 7.800000e-01 0.000000e+00
4.148045e-01 6.817441e-01 0.000000e+00
4.144908e-01 7.800000e-01 0.000000e+00
4.148045e-01 6.817441e-01 0.000000e+00
4.144908e-01 7.800000e-01 0.000000e+00
4.739059e-01 6.824936e-01 0.000000e+00
4.739773e-01 7.800000e-01 0.000000e+00
4.739059e-01 6.824936e-01 0.000000e+00
4.739773e-01 7.800000e-01 0.000000e+00
5.328085e-01 6.833721e-01 0.000000e+00
5.337787e-01 7.800000e-01 0.000000e+00
5.328085e-01 6.833721e-01 0.000000e+00
5.337787e-01 7.800000e-01 0.000000e+00
5.913021e-01 6.843564e-01 0.000000e+00
5.941360e-01 7.800000e-01 0.000000e+00
5.913021e-01 6.843564e-01 0.000000e+00
5.941360e-01 7.800000e-01 0.000000e+00
6.489775e-01 6.852805e-01 0.000000e+00
6.553419e-01 7.800000e-01 0.000000e+00
6.489775e-01 6.852805e-01 0.000000e+00
6.553419e-01 7.800000e-01 0.000000e+00
7.051999e-01 6.855794e-01 0.000000e+00
7.173708e-01 7.800000e-01 0.000000e+00
7.051999e-01 6.855794e-01 0.000000e+00
7.173708e-01 7.800000e-01 0.000000e+00
7.603856e-01 6.837025e-01 0.000000e+00
7.784518e-01 7.778689e-01 0.000000e+00
7.603856e-01 6.837025e-01 0.000000e+00
7.784518e-01 7.778689e-01 0.000000e+00
8.136091e-01 6.751799e-01 0.000000e+00
8.387744e-01 7.664819e-01 0.000000e+00
8.136091e-01 6.751799e-01 0.000000e+00
8.387744e-01 7.664819e-01 0.000000e+00
8.647405e-01 6.606139e-01 0.000000e+00
8.980857e-01 7.480186e-01 0.000000e+00
8.647405e-01 6.606139e-01 0.000000e+00
8.980857e-01 7.480186e-01 0.000000e+00
9.137215e-01 6.400821e-01 0.000000e+00
9.551688e-01 7.228290e-01 0.000000e+00
9.137215e-01 6.400821e-01 0.000000e+00
9.551688e-01 7.228290e-01 0.000000e+00
9.602991e-01 6.141760e-01 0.000000e+00
1.009255e+00 6.916689e-01 0.000000e+00
9.602991e-01 6.141760e-01 0.000000e+00
1.009255e+00 6.916689e-01 0.000000e+00
1.004199e+00 5.834327e-01 0.000000e+00
1.059865e+00 6.552745e-01 0.000000e+00
1.004199e+00 5.834327e-01 0.000000e+00
1.059865e+00 6.552745e-01 0.000000e+00
1.045184e+00 5.483855e-01 0.000000e+00
1.106723e+00 6.143385e-01 0.000000e+00
1.045184e+00 5.483855e-01 0.000000e+00
1.106723e+00 6.143385e-01 0.000000e+00
1.083054e+00 5.095369e-01 0.000000e+00
1.149675e+00 5.694763e-01 0.000000e+00
1.083054e+00 5.095369e-01 0.000000e+00
1.149675e+00 5.694763e-01 0.000000e+00
1.117654e+00 4.673545e-01 0.000000e+00
1.188633e+00 5.212284e-01 0.000000e+00
1.117654e+00 4.673545e-01 0.000000e+00
1.188633e+00 5.212284e-01 0.000000e+00
1.148857e+00 4.222702e-01 0.000000e+00
1.223548e+00 4.700701e-01 0.000000e+00
1.148857e+00 4.222702e-01 0.000000e+00
1.223548e+00 4.700701e-01 0.000000e+00
1.176569e+00 3.746825e-01 0.000000e+00
1.254392e+00 4.164234e-01 0.000000e+00
1.176569e+00 3.746825e-01 0.000000e+00
1.254392e+00 4.164234e-01 0.000000e+00
1.200713e+00 3.249611e-01 0.000000e+00
1.281148e+00 3.606689e-01 0.000000e+00
1.200713e+00 3.249611e-01 0.000000e+00
1.281148e+00 3.606689e-01 0.000000e+00
1.221229e+00 2.734514e-01 0.000000e+00
1.303803e+00 3.031550e-01 0.000000e+00
1.221229e+00 2.734514e-01 0.000000e+00
1.303803e+00 3.031550e-01 0.000000e+00
1.238072e+00 2.204789e-01 0.000000e+00
1.322351e+00 2.442058e-01 0.000000e+00
1.238072e+00 2.204789e-01 0.000000e+00
1.322351e+00 2.442058e-01 0.000000e+00
1.251207e+00 1.663534e-01 0.000000e+00
1.336783e+00 1.841271e-01 0.000000e+00
1.251207e+00 1.663534e-01 0.000000e+00
1.336783e+00 1.841271e-01 0.000000e+00
1.260606e+00 1.113730e-01 0.000000e+00
1.347096e+00 1.232118e-01 0.000000e+00
1.260606e+00 1.113730e-01 0.000000e+00
1.347096e+00 1.232118e-01 0.000000e+00
1.266253e+00 5.582716e-02 0.000000e+00
1.353285e+00 6.174346e-02 0.000000e+00
1.266253e+00 5.582716e-02 0.000000e+00
1.353285e+00 6.174346e-02 0.000000e+00
1.268136e+00 6.209540e-12 0.000000e+00
1.355348e+00 6.636580e-12 0.000000e+00
</DataArray>
</Points>
<Cells>
<DataArray type="Int32" Name="connectivity" format="ascii">
0 1 3 2
4 5 7 6
8 9 11 10
12 13 15 14
16 17 19 18
20 21 23 22
24 25 27 26
28 29 31 30
32 33 35 34
36 37 39 38
40 41 43 42
44 45 47 46
48 49 51 50
52 53 55 54
56 57 59 58
60 61 63 62
64 65 67 66
68 69 71 70
72 73 75 74
76 77 79 78
80 81 83 82
84 85 87 86
88 89 91 90
92 93 95 94
96 97 99 98
100 101 103 102
104 105 107 106
108 109 111 110
112 113 115 114
116 117 119 118
</DataArray>
<DataArray type="Int32" Name="offsets" format="ascii">
4
8
12
16
20
24
28
32
36
40
44
48
52
56
60
64
68
72
76
80
84
88
92
96
100
104
108
112
116
120
</DataArray>
<DataArray type="UInt8" Name="types" format="ascii">
9
9
9
9
9
9
9
9
9
9
9
9
9
9
9
9
9
9
9
9
9
9
9
9
9
9
9
9
9
9
</DataArray>
</Cells>
<PointData>
<DataArray type="Float32" Name="V1" format="ascii">
1.684526e+01
-3.071610e-01
1.686994e+01
-2.824796e-01
1.690007e+01
-3.037982e-01
1.696538e+01
-2.384856e-01
1.702771e+01
-2.813505e-01
1.713802e+01
-1.710474e-01
1.723075e+01
-2.357738e-01
1.738696e+01
-7.956828e-02
1.750883e+01
-1.653356e-01
1.771229e+01
3.812545e-02
1.785872e+01
-6.579832e-02
1.811147e+01
1.869532e-01
1.827001e+01
7.270948e-02
1.857538e+01
3.780799e-01
1.871627e+01
2.725455e-01
1.908059e+01
6.368647e-01
1.913819e+01
5.831794e-01
1.957505e+01
1.020036e+00
1.941420e+01
1.111755e+00
1.995467e+01
1.652217e+00
1.931629e+01
2.083358e+00
2.004134e+01
2.808404e+00
1.845027e+01
3.994416e+00
1.959445e+01
5.138602e+00
1.656234e+01
8.031982e+00
1.817939e+01
9.649030e+00
1.613065e+01
1.107276e+01
1.696579e+01
1.190790e+01
1.629468e+01
1.241802e+01
1.706053e+01
1.318387e+01
1.689805e+01
1.332479e+01
1.764436e+01
1.407111e+01
1.776443e+01
1.397651e+01
1.847352e+01
1.468560e+01
1.873104e+01
1.447277e+01
1.938666e+01
1.512838e+01
1.970587e+01
1.486459e+01
2.030007e+01
1.545880e+01
2.063603e+01
1.518331e+01
2.116627e+01
1.571355e+01
2.149339e+01
1.544798e+01
2.196039e+01
1.591498e+01
2.226438e+01
1.567067e+01
2.267060e+01
1.607689e+01
2.294395e+01
1.585923e+01
2.329259e+01
1.620788e+01
2.353175e+01
1.601897e+01
2.382617e+01
1.631339e+01
2.402990e+01
1.615358e+01
2.427328e+01
1.639696e+01
2.444153e+01
1.626572e+01
2.463668e+01
1.646088e+01
2.477001e+01
1.635734e+01
2.491931e+01
1.650665e+01
2.501844e+01
1.642992e+01
2.512375e+01
1.653523e+01
2.518940e+01
1.648455e+01
2.525205e+01
1.654720e+01
2.528473e+01
1.652200e+01
2.530552e+01
1.654279e+01
</DataArray>
<DataArray type="Float32" Name="V2" format="ascii">
6.794222e-01
7.800000e-01
6.816482e-01
7.820281e-01
6.816482e-01
7.820281e-01
6.882852e-01
7.880984e-01
6.882852e-01
7.880984e-01
6.992965e-01
7.981693e-01
6.992965e-01
7.981693e-01
7.146060e-01
8.121723e-01
7.146060e-01
8.121723e-01
7.341083e-01
8.300134e-01
7.341083e-01
8.300134e-01
7.576675e-01
8.515771e-01
7.576675e-01
8.515771e-01
7.851156e-01
8.767330e-01
7.851156e-01
8.767330e-01
8.162438e-01
9.053494e-01
8.162438e-01
9.053494e-01
8.507790e-01
9.373155e-01
8.507790e-01
9.373155e-01
8.883211e-01
9.725678e-01
8.883211e-01
9.725678e-01
9.281831e-01
1.011088e+00
9.281831e-01
1.011088e+00
9.691514e-01
1.052693e+00
9.691514e-01
1.052693e+00
1.009863e+00
1.094413e+00
1.009863e+00
1.094413e+00
1.046167e+00
1.130857e+00
1.046167e+00
1.130857e+00
1.078588e+00
1.163972e+00
1.078588e+00
1.163972e+00
1.107326e+00
1.193496e+00
1.107326e+00
1.193496e+00
1.132806e+00
1.219620e+00
1.132806e+00
1.219620e+00
1.155348e+00
1.242609e+00
1.155348e+00
1.242609e+00
1.175237e+00
1.262769e+00
1.175237e+00
1.262769e+00
1.192721e+00
1.280386e+00
1.192721e+00
1.280386e+00
1.208011e+00
1.295713e+00
1.208011e+00
1.295713e+00
1.221286e+00
1.308962e+00
1.221286e+00
1.308962e+00
1.232696e+00
1.320309e+00
1.232696e+00
1.320309e+00
1.242364e+00
1.329897e+00
1.242364e+00
1.329897e+00
1.250391e+00
1.337840e+00
1.250391e+00
1.337840e+00
1.256857e+00
1.344227e+00
1.256857e+00
1.344227e+00
1.261825e+00
1.349129e+00
1.261825e+00
1.349129e+00
1.265342e+00
1.352595e+00
1.265342e+00
1.352595e+00
1.267439e+00
1.354662e+00
1.267439e+00
1.354662e+00
1.268136e+00
1.355348e+00
</DataArray>
<DataArray type="Float32" Name="V3" format="ascii">
0.000000e+00
0.000000e+00
2.363570e-02
1.827328e-02
2.363570e-02
1.827328e-02
4.686772e-02
3.617294e-02
4.686772e-02
3.617294e-02
6.929160e-02
5.332921e-02
6.929160e-02
5.332921e-02
9.050725e-02
6.937743e-02
9.050725e-02
6.937743e-02
1.101176e-01
8.396374e-02
1.101176e-01
8.396374e-02
1.277272e-01
9.675178e-02
1.277272e-01
9.675178e-02
1.429381e-01
1.074335e-01
1.429381e-01
1.074335e-01
1.553395e-01
1.157452e-01
1.553395e-01
1.157452e-01
1.644915e-01
1.214877e-01
1.644915e-01
1.214877e-01
1.699045e-01
1.245369e-01
1.699045e-01
1.245369e-01
1.710478e-01
1.247975e-01
1.710478e-01
1.247975e-01
1.675453e-01
1.218927e-01
1.675453e-01
1.218927e-01
1.606627e-01
1.154419e-01
1.606627e-01
1.154419e-01
1.528459e-01
1.104543e-01
1.528459e-01
1.104543e-01
1.443393e-01
1.061135e-01
1.443393e-01
1.061135e-01
1.357253e-01
1.019661e-01
1.357253e-01
1.019661e-01
1.270314e-01
9.761729e-02
1.270314e-01
9.761729e-02
1.182467e-01
9.284467e-02
1.182467e-01
9.284467e-02
1.093331e-01
8.753708e-02
1.093331e-01
8.753708e-02
1.002553e-01
8.165657e-02
1.002553e-01
8.165657e-02
9.098816e-02
7.521015e-02
9.098816e-02
7.521015e-02
8.151943e-02
6.823147e-02
8.151943e-02
6.823147e-02
7.184845e-02
6.076918e-02
7.184845e-02
6.076918e-02
6.198428e-02
5.287986e-02
6.198428e-02
5.287986e-02
5.194359e-02
4.462384e-02
5.194359e-02
4.462384e-02
4.174880e-02
3.606284e-02
4.174880e-02
3.606284e-02
3.142653e-02
2.725874e-02
3.142653e-02
2.725874e-02
2.100636e-02
1.827302e-02
2.100636e-02
1.827302e-02
1.051990e-02
9.166613e-03
1.051990e-02
9.166613e-03
0.000000e+00
0.000000e+00
</DataArray>
<DataArray type="Float32" Name="V4" format="ascii">
8.500000e-01
1.000000e+00
8.500000e-01
1.000000e+00
8.500000e-01
1.000000e+00
8.500000e-01
1.000000e+00
8.500000e-01
1.000000e+00
8.500000e-01
1.000000e+00
8.500000e-01
1.000000e+00
8.500000e-01
1.000000e+00
8.500000e-01
1.000000e+00
8.500000e-01
1.000000e+00
8.500000e-01
1.000000e+00
8.500000e-01
1.000000e+00
8.500000e-01
1.000000e+00
8.500000e-01
1.000000e+00
8.500000e-01
1.000000e+00
8.500000e-01
1.000000e+00
8.500000e-01
1.000000e+00
8.500000e-01
1.000000e+00
8.500000e-01
1.000000e+00
8.500000e-01
1.000000e+00
8.500000e-01
1.000000e+00
8.500000e-01
1.000000e+00
8.500000e-01
1.000000e+00
8.500000e-01
1.000000e+00
8.500000e-01
1.000000e+00
8.500000e-01
1.000000e+00
8.500000e-01
1.000000e+00
8.500000e-01
1.000000e+00
8.500000e-01
1.000000e+00
8.500000e-01
1.000000e+00
8.500000e-01
1.000000e+00
8.500000e-01
1.000000e+00
8.500000e-01
1.000000e+00
8.500000e-01
1.000000e+00
8.500000e-01
1.000000e+00
8.500000e-01
1.000000e+00
8.500000e-01
1.000000e+00
8.500000e-01
1.000000e+00
8.500000e-01
1.000000e+00
8.500000e-01
1.000000e+00
8.500000e-01
1.000000e+00
8.500000e-01
1.000000e+00
8.500000e-01
1.000000e+00
8.500000e-01
1.000000e+00
8.500000e-01
1.000000e+00
8.500000e-01
1.000000e+00
8.500000e-01
1.000000e+00
8.500000e-01
1.000000e+00
8.500000e-01
1.000000e+00
8.500000e-01
1.000000e+00
8.500000e-01
1.000000e+00
8.500000e-01
1.000000e+00
8.500000e-01
1.000000e+00
8.500000e-01
1.000000e+00
8.500000e-01
1.000000e+00
8.500000e-01
1.000000e+00
8.500000e-01
1.000000e+00
8.500000e-01
1.000000e+00
8.500000e-01
1.000000e+00
8.500000e-01
1.000000e+00
</DataArray>
<DataArray type="Float32" Name="V5" format="ascii">
0.000000e+00
0.000000e+00
5.235988e-02
5.235988e-02
5.235988e-02
5.235988e-02
1.047198e-01
1.047198e-01
1.047198e-01
1.047198e-01
1.570796e-01
1.570796e-01
1.570796e-01
1.570796e-01
2.094395e-01
2.094395e-01
2.094395e-01
2.094395e-01
2.617994e-01
2.617994e-01
2.617994e-01
2.617994e-01
3.141593e-01
3.141593e-01
3.141593e-01
3.141593e-01
3.665191e-01
3.665191e-01
3.665191e-01
3.665191e-01
4.188790e-01
4.188790e-01
4.188790e-01
4.188790e-01
4.712389e-01
4.712389e-01
4.712389e-01
4.712389e-01
5.235988e-01
5.235988e-01
5.235988e-01
5.235988e-01
5.759587e-01
5.759587e-01
5.759587e-01
5.759587e-01
6.283185e-01
6.283185e-01
6.283185e-01
6.283185e-01
6.806784e-01
6.806784e-01
6.806784e-01
6.806784e-01
7.330383e-01
7.330383e-01
7.330383e-01
7.330383e-01
7.853982e-01
7.853982e-01
7.853982e-01
7.853982e-01
8.377580e-01
8.377580e-01
8.377580e-01
8.377580e-01
8.901179e-01
8.901179e-01
8.901179e-01
8.901179e-01
9.424778e-01
9.424778e-01
9.424778e-01
9.424778e-01
9.948377e-01
9.948377e-01
9.948377e-01
9.948377e-01
1.047198e+00
1.047198e+00
1.047198e+00
1.047198e+00
1.099557e+00
1.099557e+00
1.099557e+00
1.099557e+00
1.151917e+00
1.151917e+00
1.151917e+00
1.151917e+00
1.204277e+00
1.204277e+00
1.204277e+00
1.204277e+00
1.256637e+00
1.256637e+00
1.256637e+00
1.256637e+00
1.308997e+00
1.308997e+00
1.308997e+00
1.308997e+00
1.361357e+00
1.361357e+00
1.361357e+00
1.361357e+00
1.413717e+00
1.413717e+00
1.413717e+00
1.413717e+00
1.466077e+00
1.466077e+00
1.466077e+00
1.466077e+00
1.518436e+00
1.518436e+00
1.518436e+00
1.518436e+00
1.570796e+00
1.570796e+00
</DataArray>
</PointData>
</Piece></UnstructuredGrid>
</VTKFile>
