<?xml version="1.0"?>
<VTKFile type="UnstructuredGrid" version="0.1" byte_order="LittleEndian" compressor="vtkZLibDataCompressor">
<UnstructuredGrid>
<Piece NumberOfPoints="120" NumberOfCells="30">
<Points>
<DataArray type="Float32" NumberOfComponents="3" format="ascii">
0.000000e+00 5.218023e-01 0.000000e+00
0.000000e+00 6.000000e-01 0.000000e+00
6.719522e-02 5.218466e-01 0.000000e+00
6.712856e-02 6.000000e-01 0.000000e+00
6.719522e-02 5.218466e-01 0.000000e+00
6.712856e-02 6.000000e-01 0.000000e+00
1.343856e-01 5.219399e-01 0.000000e+00
1.342513e-01 6.000000e-01 0.000000e+00
1.343856e-01 5.219399e-01 0.000000e+00
1.342513e-01 6.000000e-01 0.000000e+00
2.015633e-01 5.220954e-01 0.000000e+00
2.013627e-01 6.000000e-01 0.000000e+00
2.015633e-01 5.220954e-01 0.000000e+00
2.013627e-01 6.000000e-01 0.000000e+00
2.687218e-01 5.223124e-01 0.000000e+00
2.684566e-01 6.000000e-01 0.000000e+00
2.687218e-01 5.223124e-01 0.000000e+00
2.684566e-01 6.000000e-01 0.000000e+00
3.358540e-01 5.225900e-01 0.000000e+00
3.355268e-01 6.000000e-01 0.000000e+00
3.358540e-01 5.225900e-01 0.000000e+00
3.355268e-01 6.000000e-01 0.000000e+00
4.029519e-01 5.229271e-01 0.000000e+00
4.025672e-01 6.000000e-01 0.000000e+00
4.029519e-01 5.229271e-01 0.000000e+00
4.025672e-01 6.000000e-01 0.000000e+00
4.700067e-01 5.233226e-01 0.000000e+00
4.695717e-01 6.000000e-01 0.000000e+00
4.700067e-01 5.233226e-01 0.000000e+00
4.695717e-01 6.000000e-01 0.000000e+00
5.370076e-01 5.237752e-01 0.000000e+00
5.365351e-01 6.000000e-01 0.000000e+00
5.370076e-01 5.237752e-01 0.000000e+00
5.365351e-01 6.000000e-01 0.000000e+00
6.039416e-01 5.242836e-01 0.000000e+00
6.034541e-01 6.000000e-01 0.000000e+00
6.039416e-01 5.242836e-01 0.000000e+00
6.034541e-01 6.000000e-01 0.000000e+00
6.707917e-01 5.248466e-01 0.000000e+00
6.703295e-01 6.000000e-01 0.000000e+00
6.707917e-01 5.248466e-01 0.000000e+00
6.703295e-01 6.000000e-01 0.000000e+00
7.375344e-01 5.254636e-01 0.000000e+00
7.371711e-01 6.000000e-01 0.000000e+00
7.375344e-01 5.254636e-01 0.000000e+00
7.371711e-01 6.000000e-01 0.000000e+00
8.041346e-01 5.261344e-01 0.000000e+00
8.040059e-01 6.000000e-01 0.000000e+00
8.041346e-01 5.261344e-01 0.000000e+00
8.040059e-01 6.000000e-01 0.000000e+00
8.705367e-01 5.268596e-01 0.000000e+00
8.708927e-01 6.000000e-01 0.000000e+00
8.705367e-01 5.268596e-01 0.000000e+00
8.708927e-01 6.000000e-01 0.000000e+00
9.366454e-01 5.276399e-01 0.000000e+00
9.379485e-01 6.000000e-01 0.000000e+00
9.366454e-01 5.276399e-01 0.000000e+00
9.379485e-01 6.000000e-01 0.000000e+00
1.002288e+00 5.284712e-01 0.000000e+00
1.005387e+00 6.000000e-01 0.000000e+00
1.002288e+00 5.284712e-01 0.000000e+00
1.005387e+00 6.000000e-01 0.000000e+00
1.067128e+00 5.293174e-01 0.000000e+00
1.073552e+00 6.000000e-01 0.000000e+00
1.067128e+00 5.293174e-01 0.000000e+00
1.073552e+00 6.000000e-01 0.000000e+00
1.130530e+00 5.299749e-01 0.000000e+00
1.142690e+00 6.000000e-01 0.000000e+00
1.130530e+00 5.299749e-01 0.000000e+00
1.142690e+00 6.000000e-01 0.000000e+00
1.192492e+00 5.289748e-01 0.000000e+00
1.210248e+00 5.980947e-01 0.000000e+00
1.192492e+00 5.289748e-01 0.000000e+00
1.210248e+00 5.980947e-01 0.000000e+00
1.252065e+00 5.178287e-01 0.000000e+00
1.275844e+00 5.837726e-01 0.000000e+00
1.252065e+00 5.178287e-01 0.000000e+00
1.275844e+00 5.837726e-01 0.000000e+00
1.307990e+00 4.970970e-01 0.000000e+00
1.338982e+00 5.588571e-01 0.000000e+00
1.307990e+00 4.970970e-01 0.000000e+00
1.338982e+00 5.588571e-01 0.000000e+00
1.359716e+00 4.679803e-01 0.000000e+00
1.397813e+00 5.246261e-01 0.000000e+00
1.359716e+00 4.679803e-01 0.000000e+00
1.397813e+00 5.246261e-01 0.000000e+00
1.406749e+00 4.317324e-01 0.000000e+00
1.451216e+00 4.825809e-01 0.000000e+00
1.406749e+00 4.317324e-01 0.000000e+00
1.451216e+00 4.825809e-01 0.000000e+00
1.448718e+00 3.894857e-01 0.000000e+00
1.498597e+00 4.341264e-01 0.000000e+00
1.448718e+00 3.894857e-01 0.000000e+00
1.498597e+00 4.341264e-01 0.000000e+00
1.485367e+00 3.422643e-01 0.000000e+00
1.539684e+00 3.804975e-01 0.000000e+00
1.485367e+00 3.422643e-01 0.000000e+00
1.539684e+00 3.804975e-01 0.000000e+00
1.516531e+00 2.909847e-01 0.000000e+00
1.574384e+00 3.227491e-01 0.000000e+00
1.516531e+00 2.909847e-01 0.000000e+00
1.574384e+00 3.227491e-01 0.000000e+00
1.542107e+00 2.364679e-01 0.000000e+00
1.602692e+00 2.617802e-01 0.000000e+00
1.542107e+00 2.364679e-01 0.000000e+00
1.602692e+00 2.617802e-01 0.000000e+00
1.562036e+00 1.794548e-01 0.000000e+00
1.624643e+00 1.983664e-01 0.000000e+00
1.562036e+00 1.794548e-01 0.000000e+00
1.624643e+00 1.983664e-01 0.000000e+00
1.576286e+00 1.206234e-01 0.000000e+00
1.640282e+00 1.331917e-01 0.000000e+00
1.576286e+00 1.206234e-01 0.000000e+00
1.640282e+00 1.331917e-01 0.000000e+00
1.584840e+00 6.060473e-02 0.000000e+00
1.649648e+00 6.687625e-02 0.000000e+00
1.584840e+00 6.060473e-02 0.000000e+00
1.649648e+00 6.687625e-02 0.000000e+00
1.587692e+00 7.774280e-12 0.000000e+00
1.652767e+00 8.092920e-12 0.000000e+00
</DataArray>
</Points>
<Cells>
<DataArray type="Int32" Name="connectivity" format="ascii">
0 1 3 2
4 5 7 6
8 9 11 10
12 13 15 14
16 17 19 18
20 21 23 22
24 25 27 26
28 29 31 30
32 33 35 34
36 37 39 38
40 41 43 42
44 45 47 46
48 49 51 50
52 53 55 54
56 57 59 58
60 61 63 62
64 65 67 66
68 69 71 70
72 73 75 74
76 77 79 78
80 81 83 82
84 85 87 86
88 89 91 90
92 93 95 94
96 97 99 98
100 101 103 102
104 105 107 106
108 109 111 110
112 113 115 114
116 117 119 118
</DataArray>
<DataArray type="Int32" Name="offsets" format="ascii">
4
8
12
16
20
24
28
32
36
40
44
48
52
56
60
64
68
72
76
80
84
88
92
96
100
104
108
112
116
120
</DataArray>
<DataArray type="UInt8" Name="types" format="ascii">
9
9
9
9
9
9
9
9
9
9
9
9
9
9
9
9
9
9
9
9
9
9
9
9
9
9
9
9
9
9
</DataArray>
</Cells>
<PointData>
<DataArray type="Float32" Name="V1" format="ascii">
4.383458e+01
-4.865874e-01
4.388573e+01
-4.354421e-01
4.396920e+01
-4.891361e-01
4.411198e+01
-3.463553e-01
4.428154e+01
-4.563604e-01
4.452360e+01
-2.142992e-01
4.477858e+01
-3.820226e-01
4.512246e+01
-3.813893e-02
4.546554e+01
-2.652064e-01
4.591522e+01
1.844808e-01
4.634966e+01
-1.040812e-01
4.691060e+01
4.568608e-01
4.744002e+01
1.042628e-01
4.811933e+01
7.835725e-01
4.874710e+01
3.643149e-01
4.955387e+01
1.171082e+00
5.028199e+01
6.831163e-01
5.122779e+01
1.628916e+00
5.205443e+01
1.072084e+00
5.315418e+01
2.171827e+00
5.406890e+01
1.550526e+00
5.534227e+01
2.823899e+00
5.631654e+01
2.152459e+00
5.779050e+01
3.626417e+00
5.875925e+01
2.940061e+00
6.047225e+01
4.653058e+00
6.129848e+01
4.030874e+00
6.330695e+01
6.039352e+00
6.371580e+01
5.654608e+00
6.610135e+01
8.040158e+00
6.556251e+01
8.276166e+00
6.843800e+01
1.115165e+01
6.592675e+01
1.293169e+01
6.953264e+01
1.653758e+01
6.318346e+01
2.265814e+01
6.846417e+01
2.793885e+01
6.350558e+01
3.146190e+01
6.729625e+01
3.525257e+01
6.603065e+01
3.602511e+01
6.957569e+01
3.957016e+01
7.002677e+01
3.924318e+01
7.344851e+01
4.266491e+01
7.471730e+01
4.169130e+01
7.793922e+01
4.491322e+01
7.954393e+01
4.365039e+01
8.247835e+01
4.658481e+01
8.415025e+01
4.526137e+01
8.673730e+01
4.784842e+01
8.831825e+01
4.660040e+01
9.052394e+01
4.880609e+01
9.192021e+01
4.771047e+01
9.372834e+01
4.951860e+01
9.488500e+01
4.861698e+01
9.628990e+01
5.002188e+01
9.717558e+01
4.933553e+01
9.817697e+01
5.033692e+01
9.877446e+01
4.987595e+01
9.937410e+01
5.047558e+01
9.967466e+01
5.024433e+01
9.987430e+01
5.044398e+01
</DataArray>
<DataArray type="Float32" Name="V2" format="ascii">
5.218023e-01
6.000000e-01
5.246481e-01
6.026910e-01
5.246481e-01
6.026910e-01
5.331278e-01
6.107462e-01
5.331278e-01
6.107462e-01
5.471990e-01
6.241131e-01
5.471990e-01
6.241131e-01
5.667690e-01
6.427038e-01
5.667690e-01
6.427038e-01
5.917085e-01
6.663962e-01
5.917085e-01
6.663962e-01
6.218522e-01
6.950340e-01
6.218522e-01
6.950340e-01
6.569991e-01
7.284277e-01
6.569991e-01
7.284277e-01
6.969131e-01
7.663558e-01
6.969131e-01
7.663558e-01
7.413238e-01
8.085663e-01
7.413238e-01
8.085663e-01
7.899263e-01
8.547800e-01
7.899263e-01
8.547800e-01
8.423809e-01
9.046945e-01
8.423809e-01
9.046945e-01
8.983101e-01
9.579930e-01
8.983101e-01
9.579930e-01
9.572933e-01
1.014358e+00
9.572933e-01
1.014358e+00
1.018851e+00
1.073497e+00
1.018851e+00
1.073497e+00
1.082410e+00
1.135180e+00
1.082410e+00
1.135180e+00
1.147213e+00
1.199283e+00
1.147213e+00
1.199283e+00
1.212111e+00
1.265630e+00
1.212111e+00
1.265630e+00
1.275670e+00
1.330663e+00
1.275670e+00
1.330663e+00
1.332100e+00
1.387958e+00
1.332100e+00
1.387958e+00
1.381301e+00
1.439021e+00
1.381301e+00
1.439021e+00
1.423974e+00
1.483636e+00
1.423974e+00
1.483636e+00
1.460730e+00
1.522035e+00
1.460730e+00
1.522035e+00
1.492074e+00
1.554638e+00
1.492074e+00
1.554638e+00
1.518434e+00
1.581907e+00
1.518434e+00
1.581907e+00
1.540169e+00
1.604272e+00
1.540169e+00
1.604272e+00
1.557573e+00
1.622097e+00
1.557573e+00
1.622097e+00
1.570877e+00
1.635673e+00
1.570877e+00
1.635673e+00
1.580259e+00
1.645219e+00
1.580259e+00
1.645219e+00
1.585840e+00
1.650887e+00
1.585840e+00
1.650887e+00
1.587692e+00
1.652767e+00
</DataArray>
<DataArray type="Float32" Name="V3" format="ascii">
0.000000e+00
0.000000e+00
3.979179e-02
3.563499e-02
3.979179e-02
3.563499e-02
7.909188e-02
7.079879e-02
7.909188e-02
7.079879e-02
1.174080e-01
1.050229e-01
1.174080e-01
1.050229e-01
1.542547e-01
1.378431e-01
1.542547e-01
1.378431e-01
1.891538e-01
1.688026e-01
1.891538e-01
1.688026e-01
2.216367e-01
1.974540e-01
2.216367e-01
1.974540e-01
2.512470e-01
2.233622e-01
2.512470e-01
2.233622e-01
2.775423e-01
2.461073e-01
2.775423e-01
2.461073e-01
3.000961e-01
2.652872e-01
3.000961e-01
2.652872e-01
3.184993e-01
2.805223e-01
3.184993e-01
2.805223e-01
3.323604e-01
2.914603e-01
3.323604e-01
2.914603e-01
3.413045e-01
2.977833e-01
3.413045e-01
2.977833e-01
3.449706e-01
2.992185e-01
3.449706e-01
2.992185e-01
3.430032e-01
2.955532e-01
3.430032e-01
2.955532e-01
3.350390e-01
2.866521e-01
3.350390e-01
2.866521e-01
3.206884e-01
2.724596e-01
3.206884e-01
2.724596e-01
2.995979e-01
2.528308e-01
2.995979e-01
2.528308e-01
2.729796e-01
2.274974e-01
2.729796e-01
2.274974e-01
2.476361e-01
2.052815e-01
2.476361e-01
2.052815e-01
2.234962e-01
1.855066e-01
2.234962e-01
1.855066e-01
2.003244e-01
1.671485e-01
2.003244e-01
1.671485e-01
1.777692e-01
1.494031e-01
1.777692e-01
1.494031e-01
1.555578e-01
1.317572e-01
1.555578e-01
1.317572e-01
1.334911e-01
1.139140e-01
1.334911e-01
1.139140e-01
1.114375e-01
9.572890e-02
1.114375e-01
9.572890e-02
8.932159e-02
7.715877e-02
8.932159e-02
7.715877e-02
6.711078e-02
5.822600e-02
6.711078e-02
5.822600e-02
4.480413e-02
3.899408e-02
4.480413e-02
3.899408e-02
2.242244e-02
1.955131e-02
2.242244e-02
1.955131e-02
0.000000e+00
0.000000e+00
</DataArray>
<DataArray type="Float32" Name="V4" format="ascii">
8.500000e-01
1.000000e+00
8.500000e-01
1.000000e+00
8.500000e-01
1.000000e+00
8.500000e-01
1.000000e+00
8.500000e-01
1.000000e+00
8.500000e-01
1.000000e+00
8.500000e-01
1.000000e+00
8.500000e-01
1.000000e+00
8.500000e-01
1.000000e+00
8.500000e-01
1.000000e+00
8.500000e-01
1.000000e+00
8.500000e-01
1.000000e+00
8.500000e-01
1.000000e+00
8.500000e-01
1.000000e+00
8.500000e-01
1.000000e+00
8.500000e-01
1.000000e+00
8.500000e-01
1.000000e+00
8.500000e-01
1.000000e+00
8.500000e-01
1.000000e+00
8.500000e-01
1.000000e+00
8.500000e-01
1.000000e+00
8.500000e-01
1.000000e+00
8.500000e-01
1.000000e+00
8.500000e-01
1.000000e+00
8.500000e-01
1.000000e+00
8.500000e-01
1.000000e+00
8.500000e-01
1.000000e+00
8.500000e-01
1.000000e+00
8.500000e-01
1.000000e+00
8.500000e-01
1.000000e+00
8.500000e-01
1.000000e+00
8.500000e-01
1.000000e+00
8.500000e-01
1.000000e+00
8.500000e-01
1.000000e+00
8.500000e-01
1.000000e+00
8.500000e-01
1.000000e+00
8.500000e-01
1.000000e+00
8.500000e-01
1.000000e+00
8.500000e-01
1.000000e+00
8.500000e-01
1.000000e+00
8.500000e-01
1.000000e+00
8.500000e-01
1.000000e+00
8.500000e-01
1.000000e+00
8.500000e-01
1.000000e+00
8.500000e-01
1.000000e+00
8.500000e-01
1.000000e+00
8.500000e-01
1.000000e+00
8.500000e-01
1.000000e+00
8.500000e-01
1.000000e+00
8.500000e-01
1.000000e+00
8.500000e-01
1.000000e+00
8.500000e-01
1.000000e+00
8.500000e-01
1.000000e+00
8.500000e-01
1.000000e+00
8.500000e-01
1.000000e+00
8.500000e-01
1.000000e+00
8.500000e-01
1.000000e+00
8.500000e-01
1.000000e+00
8.500000e-01
1.000000e+00
8.500000e-01
1.000000e+00
</DataArray>
<DataArray type="Float32" Name="V5" format="ascii">
0.000000e+00
0.000000e+00
5.235988e-02
5.235988e-02
5.235988e-02
5.235988e-02
1.047198e-01
1.047198e-01
1.047198e-01
1.047198e-01
1.570796e-01
1.570796e-01
1.570796e-01
1.570796e-01
2.094395e-01
2.094395e-01
2.094395e-01
2.094395e-01
2.617994e-01
2.617994e-01
2.617994e-01
2.617994e-01
3.141593e-01
3.141593e-01
3.141593e-01
3.141593e-01
3.665191e-01
3.665191e-01
3.665191e-01
3.665191e-01
4.188790e-01
4.188790e-01
4.188790e-01
4.188790e-01
4.712389e-01
4.712389e-01
4.712389e-01
4.712389e-01
5.235988e-01
5.235988e-01
5.235988e-01
5.235988e-01
5.759587e-01
5.759587e-01
5.759587e-01
5.759587e-01
6.283185e-01
6.283185e-01
6.283185e-01
6.283185e-01
6.806784e-01
6.806784e-01
6.806784e-01
6.806784e-01
7.330383e-01
7.330383e-01
7.330383e-01
7.330383e-01
7.853982e-01
7.853982e-01
7.853982e-01
7.853982e-01
8.377580e-01
8.377580e-01
8.377580e-01
8.377580e-01
8.901179e-01
8.901179e-01
8.901179e-01
8.901179e-01
9.424778e-01
9.424778e-01
9.424778e-01
9.424778e-01
9.948377e-01
9.948377e-01
9.948377e-01
9.948377e-01
1.047198e+00
1.047198e+00
1.047198e+00
1.047198e+00
1.099557e+00
1.099557e+00
1.099557e+00
1.099557e+00
1.151917e+00
1.151917e+00
1.151917e+00
1.151917e+00
1.204277e+00
1.204277e+00
1.204277e+00
1.204277e+00
1.256637e+00
1.256637e+00
1.256637e+00
1.256637e+00
1.308997e+00
1.308997e+00
1.308997e+00
1.308997e+00
1.361357e+00
1.361357e+00
1.361357e+00
1.361357e+00
1.413717e+00
1.413717e+00
1.413717e+00
1.413717e+00
1.466077e+00
1.466077e+00
1.466077e+00
1.466077e+00
1.518436e+00
1.518436e+00
1.518436e+00
1.518436e+00
1.570796e+00
1.570796e+00
</DataArray>
</PointData>
</Piece></UnstructuredGrid>
</VTKFile>
