<?xml version="1.0"?>
<VTKFile type="UnstructuredGrid" version="0.1" byte_order="LittleEndian" compressor="vtkZLibDataCompressor">
<UnstructuredGrid>
<Piece NumberOfPoints="120" NumberOfCells="30">
<Points>
<DataArray type="Float32" NumberOfComponents="3" format="ascii">
0.000000e+00 4.890718e-01 0.000000e+00
0.000000e+00 5.600000e-01 0.000000e+00
7.054532e-02 4.891138e-01 0.000000e+00
7.049353e-02 5.600000e-01 0.000000e+00
7.054532e-02 4.891138e-01 0.000000e+00
7.049353e-02 5.600000e-01 0.000000e+00
1.410841e-01 4.891953e-01 0.000000e+00
1.409795e-01 5.600000e-01 0.000000e+00
1.410841e-01 4.891953e-01 0.000000e+00
1.409795e-01 5.600000e-01 0.000000e+00
2.116066e-01 4.893311e-01 0.000000e+00
2.114503e-01 5.600000e-01 0.000000e+00
2.116066e-01 4.893311e-01 0.000000e+00
2.114503e-01 5.600000e-01 0.000000e+00
2.821046e-01 4.895206e-01 0.000000e+00
2.818976e-01 5.600000e-01 0.000000e+00
2.821046e-01 4.895206e-01 0.000000e+00
2.818976e-01 5.600000e-01 0.000000e+00
3.525692e-01 4.897630e-01 0.000000e+00
3.523134e-01 5.600000e-01 0.000000e+00
3.525692e-01 4.897630e-01 0.000000e+00
3.523134e-01 5.600000e-01 0.000000e+00
4.229911e-01 4.900576e-01 0.000000e+00
4.226892e-01 5.600000e-01 0.000000e+00
4.229911e-01 4.900576e-01 0.000000e+00
4.226892e-01 5.600000e-01 0.000000e+00
4.933599e-01 4.904032e-01 0.000000e+00
4.930162e-01 5.600000e-01 0.000000e+00
4.933599e-01 4.904032e-01 0.000000e+00
4.930162e-01 5.600000e-01 0.000000e+00
5.636641e-01 4.907986e-01 0.000000e+00
5.632857e-01 5.600000e-01 0.000000e+00
5.636641e-01 4.907986e-01 0.000000e+00
5.632857e-01 5.600000e-01 0.000000e+00
6.338906e-01 4.912424e-01 0.000000e+00
6.334895e-01 5.600000e-01 0.000000e+00
6.338906e-01 4.912424e-01 0.000000e+00
6.334895e-01 5.600000e-01 0.000000e+00
7.040238e-01 4.917333e-01 0.000000e+00
7.036207e-01 5.600000e-01 0.000000e+00
7.040238e-01 4.917333e-01 0.000000e+00
7.036207e-01 5.600000e-01 0.000000e+00
7.740444e-01 4.922698e-01 0.000000e+00
7.736761e-01 5.600000e-01 0.000000e+00
7.740444e-01 4.922698e-01 0.000000e+00
7.736761e-01 5.600000e-01 0.000000e+00
8.439273e-01 4.928503e-01 0.000000e+00
8.436593e-01 5.600000e-01 0.000000e+00
8.439273e-01 4.928503e-01 0.000000e+00
8.436593e-01 5.600000e-01 0.000000e+00
9.136373e-01 4.934734e-01 0.000000e+00
9.135880e-01 5.600000e-01 0.000000e+00
9.136373e-01 4.934734e-01 0.000000e+00
9.135880e-01 5.600000e-01 0.000000e+00
9.831215e-01 4.941372e-01 0.000000e+00
9.835064e-01 5.600000e-01 0.000000e+00
9.831215e-01 4.941372e-01 0.000000e+00
9.835064e-01 5.600000e-01 0.000000e+00
1.052294e+00 4.948390e-01 0.000000e+00
1.053507e+00 5.600000e-01 0.000000e+00
1.052294e+00 4.948390e-01 0.000000e+00
1.053507e+00 5.600000e-01 0.000000e+00
1.121008e+00 4.955737e-01 0.000000e+00
1.123770e+00 5.600000e-01 0.000000e+00
1.121008e+00 4.955737e-01 0.000000e+00
1.123770e+00 5.600000e-01 0.000000e+00
1.188983e+00 4.963275e-01 0.000000e+00
1.194609e+00 5.600000e-01 0.000000e+00
1.188983e+00 4.963275e-01 0.000000e+00
1.194609e+00 5.600000e-01 0.000000e+00
1.255650e+00 4.970103e-01 0.000000e+00
1.266424e+00 5.600000e-01 0.000000e+00
1.255650e+00 4.970103e-01 0.000000e+00
1.266424e+00 5.600000e-01 0.000000e+00
1.320728e+00 4.970399e-01 0.000000e+00
1.337267e+00 5.593641e-01 0.000000e+00
1.320728e+00 4.970399e-01 0.000000e+00
1.337267e+00 5.593641e-01 0.000000e+00
1.383672e+00 4.870480e-01 0.000000e+00
1.405420e+00 5.462300e-01 0.000000e+00
1.383672e+00 4.870480e-01 0.000000e+00
1.405420e+00 5.462300e-01 0.000000e+00
1.442467e+00 4.655557e-01 0.000000e+00
1.470868e+00 5.207708e-01 0.000000e+00
1.442467e+00 4.655557e-01 0.000000e+00
1.470868e+00 5.207708e-01 0.000000e+00
1.496321e+00 4.345338e-01 0.000000e+00
1.531428e+00 4.847925e-01 0.000000e+00
1.496321e+00 4.345338e-01 0.000000e+00
1.531428e+00 4.847925e-01 0.000000e+00
1.544613e+00 3.955414e-01 0.000000e+00
1.585743e+00 4.400996e-01 0.000000e+00
1.544613e+00 3.955414e-01 0.000000e+00
1.585743e+00 4.400996e-01 0.000000e+00
1.586915e+00 3.499843e-01 0.000000e+00
1.633113e+00 3.883887e-01 0.000000e+00
1.586915e+00 3.499843e-01 0.000000e+00
1.633113e+00 3.883887e-01 0.000000e+00
1.622952e+00 2.991106e-01 0.000000e+00
1.673230e+00 3.311373e-01 0.000000e+00
1.622952e+00 2.991106e-01 0.000000e+00
1.673230e+00 3.311373e-01 0.000000e+00
1.652556e+00 2.440269e-01 0.000000e+00
1.705992e+00 2.696003e-01 0.000000e+00
1.652556e+00 2.440269e-01 0.000000e+00
1.705992e+00 2.696003e-01 0.000000e+00
1.675635e+00 1.857184e-01 0.000000e+00
1.731403e+00 2.048438e-01 0.000000e+00
1.675635e+00 1.857184e-01 0.000000e+00
1.731403e+00 2.048438e-01 0.000000e+00
1.692139e+00 1.250738e-01 0.000000e+00
1.749503e+00 1.377894e-01 0.000000e+00
1.692139e+00 1.250738e-01 0.000000e+00
1.749503e+00 1.377894e-01 0.000000e+00
1.702048e+00 6.291079e-02 0.000000e+00
1.760340e+00 6.925653e-02 0.000000e+00
1.702048e+00 6.291079e-02 0.000000e+00
1.760340e+00 6.925653e-02 0.000000e+00
1.705351e+00 8.350400e-12 0.000000e+00
1.763949e+00 8.637330e-12 0.000000e+00
</DataArray>
</Points>
<Cells>
<DataArray type="Int32" Name="connectivity" format="ascii">
0 1 3 2
4 5 7 6
8 9 11 10
12 13 15 14
16 17 19 18
20 21 23 22
24 25 27 26
28 29 31 30
32 33 35 34
36 37 39 38
40 41 43 42
44 45 47 46
48 49 51 50
52 53 55 54
56 57 59 58
60 61 63 62
64 65 67 66
68 69 71 70
72 73 75 74
76 77 79 78
80 81 83 82
84 85 87 86
88 89 91 90
92 93 95 94
96 97 99 98
100 101 103 102
104 105 107 106
108 109 111 110
112 113 115 114
116 117 119 118
</DataArray>
<DataArray type="Int32" Name="offsets" format="ascii">
4
8
12
16
20
24
28
32
36
40
44
48
52
56
60
64
68
72
76
80
84
88
92
96
100
104
108
112
116
120
</DataArray>
<DataArray type="UInt8" Name="types" format="ascii">
9
9
9
9
9
9
9
9
9
9
9
9
9
9
9
9
9
9
9
9
9
9
9
9
9
9
9
9
9
9
</DataArray>
</Cells>
<PointData>
<DataArray type="Float32" Name="V1" format="ascii">
6.485884e+01
-2.286469e-01
6.493016e+01
-1.573290e-01
6.504833e+01
-2.326161e-01
6.525018e+01
-3.076251e-02
6.548927e+01
-1.851325e-01
6.583139e+01
1.569897e-01
6.619117e+01
-7.831583e-02
6.667708e+01
4.075930e-01
6.716142e+01
8.902359e-02
6.779680e+01
7.244001e-01
6.841064e+01
3.193098e-01
6.920320e+01
1.111864e+00
6.995244e+01
6.161817e-01
7.091214e+01
1.575888e+00
7.180335e+01
9.848830e-01
7.294281e+01
2.124345e+00
7.398253e+01
1.432955e+00
7.531753e+01
2.767947e+00
7.651083e+01
1.971520e+00
7.806114e+01
3.521830e+00
7.940868e+01
2.617614e+00
8.119943e+01
4.408366e+00
8.269160e+01
3.398570e+00
8.475542e+01
5.462392e+00
8.636099e+01
4.360281e+00
8.874166e+01
6.740950e+00
9.038566e+01
5.583273e+00
9.314408e+01
8.341698e+00
9.466569e+01
7.214657e+00
9.788883e+01
1.043779e+01
9.896285e+01
9.534489e+00
1.027721e+02
1.334376e+01
1.027695e+02
1.310028e+01
1.073125e+02
1.764326e+01
1.050459e+02
1.908879e+01
1.104938e+02
2.453662e+01
1.029986e+02
3.125245e+01
1.109801e+02
3.923399e+01
1.036175e+02
4.544826e+01
1.100333e+02
5.186409e+01
1.080087e+02
5.293388e+01
1.139621e+02
5.888727e+01
1.148529e+02
5.824616e+01
1.205760e+02
6.396924e+01
1.227804e+02
6.232847e+01
1.281504e+02
6.769843e+01
1.308534e+02
6.562147e+01
1.357090e+02
7.047710e+01
1.384538e+02
6.834075e+01
1.426730e+02
7.255999e+01
1.451932e+02
7.059373e+01
1.486996e+02
7.410010e+01
1.508368e+02
7.243631e+01
1.535875e+02
7.518699e+01
1.552482e+02
7.389884e+01
1.572216e+02
7.587220e+01
1.583521e+02
7.499826e+01
1.595385e+02
7.618464e+01
1.601100e+02
7.574385e+01
1.605057e+02
7.613960e+01
</DataArray>
<DataArray type="Float32" Name="V2" format="ascii">
4.890718e-01
5.600000e-01
4.921355e-01
5.629219e-01
4.921355e-01
5.629219e-01
5.012628e-01
5.716686e-01
5.012628e-01
5.716686e-01
5.164092e-01
5.861836e-01
5.164092e-01
5.861836e-01
5.374762e-01
6.063725e-01
5.374762e-01
6.063725e-01
5.643264e-01
6.321039e-01
5.643264e-01
6.321039e-01
5.967839e-01
6.632098e-01
5.967839e-01
6.632098e-01
6.346352e-01
6.994862e-01
6.346352e-01
6.994862e-01
6.776296e-01
7.406944e-01
6.776296e-01
7.406944e-01
7.254805e-01
7.865619e-01
7.254805e-01
7.865619e-01
7.778654e-01
8.367846e-01
7.778654e-01
8.367846e-01
8.344270e-01
8.910297e-01
8.344270e-01
8.910297e-01
8.947723e-01
9.489400e-01
8.947723e-01
9.489400e-01
9.584715e-01
1.010141e+00
9.584715e-01
1.010141e+00
1.025052e+00
1.074255e+00
1.025052e+00
1.074255e+00
1.093989e+00
1.140922e+00
1.093989e+00
1.140922e+00
1.164675e+00
1.209837e+00
1.164675e+00
1.209837e+00
1.236363e+00
1.280805e+00
1.236363e+00
1.280805e+00
1.307977e+00
1.353719e+00
1.307977e+00
1.353719e+00
1.378363e+00
1.426178e+00
1.378363e+00
1.426178e+00
1.441819e+00
1.490245e+00
1.441819e+00
1.490245e+00
1.496605e+00
1.546978e+00
1.496605e+00
1.546978e+00
1.543698e+00
1.596212e+00
1.543698e+00
1.596212e+00
1.583770e+00
1.638136e+00
1.583770e+00
1.638136e+00
1.617397e+00
1.673202e+00
1.617397e+00
1.673202e+00
1.645066e+00
1.701920e+00
1.645066e+00
1.701920e+00
1.667180e+00
1.724765e+00
1.667180e+00
1.724765e+00
1.684058e+00
1.742131e+00
1.684058e+00
1.742131e+00
1.695944e+00
1.754322e+00
1.695944e+00
1.754322e+00
1.703008e+00
1.761553e+00
1.703008e+00
1.761553e+00
1.705351e+00
1.763949e+00
</DataArray>
<DataArray type="Float32" Name="V3" format="ascii">
0.000000e+00
0.000000e+00
4.485040e-02
4.108878e-02
4.485040e-02
4.108878e-02
8.917643e-02
8.167130e-02
8.917643e-02
8.167130e-02
1.324531e-01
1.212437e-01
1.324531e-01
1.212437e-01
1.741629e-01
1.593069e-01
1.741629e-01
1.593069e-01
2.137957e-01
1.953700e-01
2.137957e-01
1.953700e-01
2.508523e-01
2.289518e-01
2.508523e-01
2.289518e-01
2.848463e-01
2.595842e-01
2.848463e-01
2.595842e-01
3.153070e-01
2.868146e-01
3.153070e-01
2.868146e-01
3.417812e-01
3.102086e-01
3.417812e-01
3.102086e-01
3.638358e-01
3.293534e-01
3.638358e-01
3.293534e-01
3.810589e-01
3.438615e-01
3.810589e-01
3.438615e-01
3.930614e-01
3.533750e-01
3.930614e-01
3.533750e-01
3.994767e-01
3.575718e-01
3.994767e-01
3.575718e-01
3.999593e-01
3.561745e-01
3.999593e-01
3.561745e-01
3.941805e-01
3.489623e-01
3.941805e-01
3.489623e-01
3.818177e-01
3.357878e-01
3.818177e-01
3.357878e-01
3.625326e-01
3.165901e-01
3.625326e-01
3.165901e-01
3.359627e-01
2.913360e-01
3.359627e-01
2.913360e-01
3.024673e-01
2.592053e-01
3.024673e-01
2.592053e-01
2.700399e-01
2.296611e-01
2.700399e-01
2.296611e-01
2.400532e-01
2.037500e-01
2.400532e-01
2.037500e-01
2.116423e-01
1.800079e-01
2.116423e-01
1.800079e-01
1.842700e-01
1.574109e-01
1.842700e-01
1.574109e-01
1.575289e-01
1.352802e-01
1.575289e-01
1.352802e-01
1.311321e-01
1.132096e-01
1.311321e-01
1.132096e-01
1.048914e-01
9.098683e-02
1.048914e-01
9.098683e-02
7.869516e-02
6.852922e-02
7.869516e-02
6.852922e-02
5.248806e-02
4.583829e-02
5.248806e-02
4.583829e-02
2.625373e-02
2.296749e-02
2.625373e-02
2.296749e-02
0.000000e+00
0.000000e+00
</DataArray>
<DataArray type="Float32" Name="V4" format="ascii">
8.500000e-01
1.000000e+00
8.500000e-01
1.000000e+00
8.500000e-01
1.000000e+00
8.500000e-01
1.000000e+00
8.500000e-01
1.000000e+00
8.500000e-01
1.000000e+00
8.500000e-01
1.000000e+00
8.500000e-01
1.000000e+00
8.500000e-01
1.000000e+00
8.500000e-01
1.000000e+00
8.500000e-01
1.000000e+00
8.500000e-01
1.000000e+00
8.500000e-01
1.000000e+00
8.500000e-01
1.000000e+00
8.500000e-01
1.000000e+00
8.500000e-01
1.000000e+00
8.500000e-01
1.000000e+00
8.500000e-01
1.000000e+00
8.500000e-01
1.000000e+00
8.500000e-01
1.000000e+00
8.500000e-01
1.000000e+00
8.500000e-01
1.000000e+00
8.500000e-01
1.000000e+00
8.500000e-01
1.000000e+00
8.500000e-01
1.000000e+00
8.500000e-01
1.000000e+00
8.500000e-01
1.000000e+00
8.500000e-01
1.000000e+00
8.500000e-01
1.000000e+00
8.500000e-01
1.000000e+00
8.500000e-01
1.000000e+00
8.500000e-01
1.000000e+00
8.500000e-01
1.000000e+00
8.500000e-01
1.000000e+00
8.500000e-01
1.000000e+00
8.500000e-01
1.000000e+00
8.500000e-01
1.000000e+00
8.500000e-01
1.000000e+00
8.500000e-01
1.000000e+00
8.500000e-01
1.000000e+00
8.500000e-01
1.000000e+00
8.500000e-01
1.000000e+00
8.500000e-01
1.000000e+00
8.500000e-01
1.000000e+00
8.500000e-01
1.000000e+00
8.500000e-01
1.000000e+00
8.500000e-01
1.000000e+00
8.500000e-01
1.000000e+00
8.500000e-01
1.000000e+00
8.500000e-01
1.000000e+00
8.500000e-01
1.000000e+00
8.500000e-01
1.000000e+00
8.500000e-01
1.000000e+00
8.500000e-01
1.000000e+00
8.500000e-01
1.000000e+00
8.500000e-01
1.000000e+00
8.500000e-01
1.000000e+00
8.500000e-01
1.000000e+00
8.500000e-01
1.000000e+00
8.500000e-01
1.000000e+00
</DataArray>
<DataArray type="Float32" Name="V5" format="ascii">
0.000000e+00
0.000000e+00
5.235988e-02
5.235988e-02
5.235988e-02
5.235988e-02
1.047198e-01
1.047198e-01
1.047198e-01
1.047198e-01
1.570796e-01
1.570796e-01
1.570796e-01
1.570796e-01
2.094395e-01
2.094395e-01
2.094395e-01
2.094395e-01
2.617994e-01
2.617994e-01
2.617994e-01
2.617994e-01
3.141593e-01
3.141593e-01
3.141593e-01
3.141593e-01
3.665191e-01
3.665191e-01
3.665191e-01
3.665191e-01
4.188790e-01
4.188790e-01
4.188790e-01
4.188790e-01
4.712389e-01
4.712389e-01
4.712389e-01
4.712389e-01
5.235988e-01
5.235988e-01
5.235988e-01
5.235988e-01
5.759587e-01
5.759587e-01
5.759587e-01
5.759587e-01
6.283185e-01
6.283185e-01
6.283185e-01
6.283185e-01
6.806784e-01
6.806784e-01
6.806784e-01
6.806784e-01
7.330383e-01
7.330383e-01
7.330383e-01
7.330383e-01
7.853982e-01
7.853982e-01
7.853982e-01
7.853982e-01
8.377580e-01
8.377580e-01
8.377580e-01
8.377580e-01
8.901179e-01
8.901179e-01
8.901179e-01
8.901179e-01
9.424778e-01
9.424778e-01
9.424778e-01
9.424778e-01
9.948377e-01
9.948377e-01
9.948377e-01
9.948377e-01
1.047198e+00
1.047198e+00
1.047198e+00
1.047198e+00
1.099557e+00
1.099557e+00
1.099557e+00
1.099557e+00
1.151917e+00
1.151917e+00
1.151917e+00
1.151917e+00
1.204277e+00
1.204277e+00
1.204277e+00
1.204277e+00
1.256637e+00
1.256637e+00
1.256637e+00
1.256637e+00
1.308997e+00
1.308997e+00
1.308997e+00
1.308997e+00
1.361357e+00
1.361357e+00
1.361357e+00
1.361357e+00
1.413717e+00
1.413717e+00
1.413717e+00
1.413717e+00
1.466077e+00
1.466077e+00
1.466077e+00
1.466077e+00
1.518436e+00
1.518436e+00
1.518436e+00
1.518436e+00
1.570796e+00
1.570796e+00
</DataArray>
</PointData>
</Piece></UnstructuredGrid>
</VTKFile>
