<?xml version="1.0"?>
<VTKFile type="UnstructuredGrid" version="0.1" byte_order="LittleEndian" compressor="vtkZLibDataCompressor">
<UnstructuredGrid>
<Piece NumberOfPoints="120" NumberOfCells="30">
<Points>
<DataArray type="Float32" NumberOfComponents="3" format="ascii">
0.000000e+00 6.072873e-01 0.000000e+00
0.000000e+00 7.000000e-01 0.000000e+00
6.173120e-02 6.073380e-01 0.000000e+00
6.163822e-02 7.000000e-01 0.000000e+00
6.173120e-02 6.073380e-01 0.000000e+00
6.163822e-02 7.000000e-01 0.000000e+00
1.234613e-01 6.074597e-01 0.000000e+00
1.232746e-01 7.000000e-01 0.000000e+00
1.234613e-01 6.074597e-01 0.000000e+00
1.232746e-01 7.000000e-01 0.000000e+00
1.851865e-01 6.076625e-01 0.000000e+00
1.849084e-01 7.000000e-01 0.000000e+00
1.851865e-01 6.076625e-01 0.000000e+00
1.849084e-01 7.000000e-01 0.000000e+00
2.469040e-01 6.079456e-01 0.000000e+00
2.465383e-01 7.000000e-01 0.000000e+00
2.469040e-01 6.079456e-01 0.000000e+00
2.465383e-01 7.000000e-01 0.000000e+00
3.086100e-01 6.083083e-01 0.000000e+00
3.081640e-01 7.000000e-01 0.000000e+00
3.086100e-01 6.083083e-01 0.000000e+00
3.081640e-01 7.000000e-01 0.000000e+00
3.702988e-01 6.087502e-01 0.000000e+00
3.697872e-01 7.000000e-01 0.000000e+00
3.702988e-01 6.087502e-01 0.000000e+00
3.697872e-01 7.000000e-01 0.000000e+00
4.319619e-01 6.092715e-01 0.000000e+00
4.314142e-01 7.000000e-01 0.000000e+00
4.319619e-01 6.092715e-01 0.000000e+00
4.314142e-01 7.000000e-01 0.000000e+00
4.935851e-01 6.098737e-01 0.000000e+00
4.930600e-01 7.000000e-01 0.000000e+00
4.935851e-01 6.098737e-01 0.000000e+00
4.930600e-01 7.000000e-01 0.000000e+00
5.551432e-01 6.105606e-01 0.000000e+00
5.547580e-01 7.000000e-01 0.000000e+00
5.551432e-01 6.105606e-01 0.000000e+00
5.547580e-01 7.000000e-01 0.000000e+00
6.165896e-01 6.113390e-01 0.000000e+00
6.165757e-01 7.000000e-01 0.000000e+00
6.165896e-01 6.113390e-01 0.000000e+00
6.165757e-01 7.000000e-01 0.000000e+00
6.778355e-01 6.122164e-01 0.000000e+00
6.786406e-01 7.000000e-01 0.000000e+00
6.778355e-01 6.122164e-01 0.000000e+00
6.786406e-01 7.000000e-01 0.000000e+00
7.387074e-01 6.131872e-01 0.000000e+00
7.411719e-01 7.000000e-01 0.000000e+00
7.387074e-01 6.131872e-01 0.000000e+00
7.411719e-01 7.000000e-01 0.000000e+00
7.988643e-01 6.141704e-01 0.000000e+00
8.044800e-01 7.000000e-01 0.000000e+00
7.988643e-01 6.141704e-01 0.000000e+00
8.044800e-01 7.000000e-01 0.000000e+00
8.576905e-01 6.147745e-01 0.000000e+00
8.687378e-01 7.000000e-01 0.000000e+00
8.576905e-01 6.147745e-01 0.000000e+00
8.687378e-01 7.000000e-01 0.000000e+00
9.151873e-01 6.140496e-01 0.000000e+00
9.323246e-01 6.990262e-01 0.000000e+00
9.151873e-01 6.140496e-01 0.000000e+00
9.323246e-01 6.990262e-01 0.000000e+00
9.709285e-01 6.061607e-01 0.000000e+00
9.944951e-01 6.884296e-01 0.000000e+00
9.709285e-01 6.061607e-01 0.000000e+00
9.944951e-01 6.884296e-01 0.000000e+00
1.024017e+00 5.909338e-01 0.000000e+00
1.055433e+00 6.692667e-01 0.000000e+00
1.024017e+00 5.909338e-01 0.000000e+00
1.055433e+00 6.692667e-01 0.000000e+00
1.074348e+00 5.687323e-01 0.000000e+00
1.113706e+00 6.422534e-01 0.000000e+00
1.074348e+00 5.687323e-01 0.000000e+00
1.113706e+00 6.422534e-01 0.000000e+00
1.121584e+00 5.403481e-01 0.000000e+00
1.168298e+00 6.083691e-01 0.000000e+00
1.121584e+00 5.403481e-01 0.000000e+00
1.168298e+00 6.083691e-01 0.000000e+00
1.165400e+00 5.065201e-01 0.000000e+00
1.218606e+00 5.685900e-01 0.000000e+00
1.165400e+00 5.065201e-01 0.000000e+00
1.218606e+00 5.685900e-01 0.000000e+00
1.205531e+00 4.679566e-01 0.000000e+00
1.264309e+00 5.238221e-01 0.000000e+00
1.205531e+00 4.679566e-01 0.000000e+00
1.264309e+00 5.238221e-01 0.000000e+00
1.241773e+00 4.253135e-01 0.000000e+00
1.305247e+00 4.748614e-01 0.000000e+00
1.241773e+00 4.253135e-01 0.000000e+00
1.305247e+00 4.748614e-01 0.000000e+00
1.273976e+00 3.791917e-01 0.000000e+00
1.341355e+00 4.223977e-01 0.000000e+00
1.273976e+00 3.791917e-01 0.000000e+00
1.341355e+00 4.223977e-01 0.000000e+00
1.302032e+00 3.301393e-01 0.000000e+00
1.372611e+00 3.670294e-01 0.000000e+00
1.302032e+00 3.301393e-01 0.000000e+00
1.372611e+00 3.670294e-01 0.000000e+00
1.325865e+00 2.786576e-01 0.000000e+00
1.399022e+00 3.092817e-01 0.000000e+00
1.325865e+00 2.786576e-01 0.000000e+00
1.399022e+00 3.092817e-01 0.000000e+00
1.345422e+00 2.252084e-01 0.000000e+00
1.420601e+00 2.496233e-01 0.000000e+00
1.345422e+00 2.252084e-01 0.000000e+00
1.420601e+00 2.496233e-01 0.000000e+00
1.360664e+00 1.702212e-01 0.000000e+00
1.437364e+00 1.884804e-01 0.000000e+00
1.360664e+00 1.702212e-01 0.000000e+00
1.437364e+00 1.884804e-01 0.000000e+00
1.371567e+00 1.141012e-01 0.000000e+00
1.449326e+00 1.262483e-01 0.000000e+00
1.371567e+00 1.141012e-01 0.000000e+00
1.449326e+00 1.262483e-01 0.000000e+00
1.378114e+00 5.723561e-02 0.000000e+00
1.456499e+00 6.330130e-02 0.000000e+00
1.378114e+00 5.723561e-02 0.000000e+00
1.456499e+00 6.330130e-02 0.000000e+00
1.380298e+00 6.758750e-12 0.000000e+00
1.458889e+00 7.143580e-12 0.000000e+00
</DataArray>
</Points>
<Cells>
<DataArray type="Int32" Name="connectivity" format="ascii">
0 1 3 2
4 5 7 6
8 9 11 10
12 13 15 14
16 17 19 18
20 21 23 22
24 25 27 26
28 29 31 30
32 33 35 34
36 37 39 38
40 41 43 42
44 45 47 46
48 49 51 50
52 53 55 54
56 57 59 58
60 61 63 62
64 65 67 66
68 69 71 70
72 73 75 74
76 77 79 78
80 81 83 82
84 85 87 86
88 89 91 90
92 93 95 94
96 97 99 98
100 101 103 102
104 105 107 106
108 109 111 110
112 113 115 114
116 117 119 118
</DataArray>
<DataArray type="Int32" Name="offsets" format="ascii">
4
8
12
16
20
24
28
32
36
40
44
48
52
56
60
64
68
72
76
80
84
88
92
96
100
104
108
112
116
120
</DataArray>
<DataArray type="UInt8" Name="types" format="ascii">
9
9
9
9
9
9
9
9
9
9
9
9
9
9
9
9
9
9
9
9
9
9
9
9
9
9
9
9
9
9
</DataArray>
</Cells>
<PointData>
<DataArray type="Float32" Name="V1" format="ascii">
2.258373e+01
-3.480050e-01
2.261430e+01
-3.174355e-01
2.265785e+01
-3.468941e-01
2.274029e+01
-2.644504e-01
2.282981e+01
-3.242971e-01
2.296938e+01
-1.847295e-01
2.310380e+01
-2.758660e-01
2.330193e+01
-7.773642e-02
2.348224e+01
-2.007769e-01
2.374108e+01
5.806810e-02
2.396782e+01
-9.727705e-02
2.429039e+01
2.252967e-01
2.456251e+01
3.810270e-02
2.495287e+01
4.284681e-01
2.526533e+01
2.121993e-01
2.572903e+01
6.758950e-01
2.606778e+01
4.387222e-01
2.661273e+01
9.836657e-01
2.694446e+01
7.455976e-01
2.758288e+01
1.384018e+00
2.783473e+01
1.190374e+00
2.858714e+01
1.942784e+00
2.860877e+01
1.892547e+00
2.951206e+01
2.795832e+00
2.900940e+01
3.100868e+00
3.013921e+01
4.230675e+00
2.855759e+01
5.347055e+00
3.013369e+01
6.923155e+00
2.653454e+01
1.012591e+01
2.894443e+01
1.253579e+01
2.571912e+01
1.519271e+01
2.730319e+01
1.677678e+01
2.614889e+01
1.752769e+01
2.750182e+01
1.888062e+01
2.730506e+01
1.904526e+01
2.862377e+01
2.036398e+01
2.890448e+01
2.014503e+01
3.016601e+01
2.140656e+01
3.067642e+01
2.099182e+01
3.184825e+01
2.216365e+01
3.245513e+01
2.166895e+01
3.351734e+01
2.273116e+01
3.414234e+01
2.222493e+01
3.508540e+01
2.316799e+01
3.568292e+01
2.268864e+01
3.650423e+01
2.350995e+01
3.704802e+01
2.307805e+01
3.774894e+01
2.377896e+01
3.822455e+01
2.340468e+01
3.880836e+01
2.398849e+01
3.920832e+01
2.367624e+01
3.967903e+01
2.414695e+01
3.999993e+01
2.389804e+01
4.036143e+01
2.425954e+01
4.060206e+01
2.407382e+01
4.085771e+01
2.432947e+01
4.101792e+01
2.420626e+01
4.117026e+01
2.435860e+01
4.125027e+01
2.429719e+01
4.130087e+01
2.434780e+01
</DataArray>
<DataArray type="Float32" Name="V2" format="ascii">
6.072873e-01
7.000000e-01
6.097365e-01
7.022666e-01
6.097365e-01
7.022666e-01
6.170372e-01
7.090510e-01
6.170372e-01
7.090510e-01
6.291507e-01
7.203079e-01
6.291507e-01
7.203079e-01
6.459947e-01
7.359615e-01
6.459947e-01
7.359615e-01
6.674548e-01
7.559068e-01
6.674548e-01
7.559068e-01
6.933845e-01
7.800101e-01
6.933845e-01
7.800101e-01
7.236053e-01
8.081113e-01
7.236053e-01
8.081113e-01
7.579065e-01
8.400274e-01
7.579065e-01
8.400274e-01
7.960432e-01
8.755594e-01
7.960432e-01
8.755594e-01
8.377299e-01
9.145056e-01
8.377299e-01
9.145056e-01
8.826235e-01
9.566836e-01
8.826235e-01
9.566836e-01
9.302802e-01
1.001962e+00
9.302802e-01
1.001962e+00
9.800417e-01
1.050278e+00
9.800417e-01
1.050278e+00
1.030773e+00
1.101500e+00
1.030773e+00
1.101500e+00
1.081334e+00
1.153539e+00
1.081334e+00
1.153539e+00
1.127141e+00
1.199703e+00
1.127141e+00
1.199703e+00
1.167698e+00
1.241409e+00
1.167698e+00
1.241409e+00
1.203458e+00
1.278514e+00
1.203458e+00
1.278514e+00
1.234934e+00
1.311159e+00
1.234934e+00
1.311159e+00
1.262526e+00
1.339639e+00
1.262526e+00
1.339639e+00
1.286584e+00
1.364318e+00
1.286584e+00
1.364318e+00
1.307407e+00
1.385546e+00
1.307407e+00
1.385546e+00
1.325249e+00
1.403636e+00
1.325249e+00
1.403636e+00
1.340325e+00
1.418849e+00
1.340325e+00
1.418849e+00
1.352810e+00
1.431400e+00
1.352810e+00
1.431400e+00
1.362844e+00
1.441457e+00
1.362844e+00
1.441457e+00
1.370540e+00
1.449152e+00
1.370540e+00
1.449152e+00
1.375980e+00
1.454583e+00
1.375980e+00
1.454583e+00
1.379221e+00
1.457816e+00
1.379221e+00
1.457816e+00
1.380298e+00
1.458889e+00
</DataArray>
<DataArray type="Float32" Name="V3" format="ascii">
0.000000e+00
0.000000e+00
2.986098e-02
2.491858e-02
2.986098e-02
2.491858e-02
5.928817e-02
4.942937e-02
5.928817e-02
4.942937e-02
8.784722e-02
7.312774e-02
8.784722e-02
7.312774e-02
1.151096e-01
9.561263e-02
1.151096e-01
9.561263e-02
1.406526e-01
1.164902e-01
1.406526e-01
1.164902e-01
1.640609e-01
1.353767e-01
1.640609e-01
1.353767e-01
1.849278e-01
1.519023e-01
1.849278e-01
1.519023e-01
2.028544e-01
1.657171e-01
2.028544e-01
1.657171e-01
2.174475e-01
1.764996e-01
2.174475e-01
1.764996e-01
2.283127e-01
1.839702e-01
2.283127e-01
1.839702e-01
2.350437e-01
1.879086e-01
2.350437e-01
1.879086e-01
2.372044e-01
1.881710e-01
2.372044e-01
1.881710e-01
2.343242e-01
1.846741e-01
2.343242e-01
1.846741e-01
2.260238e-01
1.772066e-01
2.260238e-01
1.772066e-01
2.129365e-01
1.649668e-01
2.129365e-01
1.649668e-01
1.992128e-01
1.538442e-01
1.992128e-01
1.538442e-01
1.851932e-01
1.440878e-01
1.851932e-01
1.440878e-01
1.713716e-01
1.350263e-01
1.713716e-01
1.350263e-01
1.576844e-01
1.260795e-01
1.576844e-01
1.260795e-01
1.440408e-01
1.168896e-01
1.440408e-01
1.168896e-01
1.303472e-01
1.072553e-01
1.303472e-01
1.072553e-01
1.165314e-01
9.708450e-02
1.165314e-01
9.708450e-02
1.025463e-01
8.635631e-02
1.025463e-01
8.635631e-02
8.836905e-02
7.509453e-02
8.836905e-02
7.509453e-02
7.399664e-02
6.335033e-02
7.399664e-02
6.335033e-02
5.944184e-02
5.119106e-02
5.944184e-02
5.119106e-02
4.472917e-02
3.869339e-02
4.472917e-02
3.869339e-02
2.989158e-02
2.593912e-02
2.989158e-02
2.593912e-02
1.496777e-02
1.301272e-02
1.496777e-02
1.301272e-02
0.000000e+00
0.000000e+00
</DataArray>
<DataArray type="Float32" Name="V4" format="ascii">
8.500000e-01
1.000000e+00
8.500000e-01
1.000000e+00
8.500000e-01
1.000000e+00
8.500000e-01
1.000000e+00
8.500000e-01
1.000000e+00
8.500000e-01
1.000000e+00
8.500000e-01
1.000000e+00
8.500000e-01
1.000000e+00
8.500000e-01
1.000000e+00
8.500000e-01
1.000000e+00
8.500000e-01
1.000000e+00
8.500000e-01
1.000000e+00
8.500000e-01
1.000000e+00
8.500000e-01
1.000000e+00
8.500000e-01
1.000000e+00
8.500000e-01
1.000000e+00
8.500000e-01
1.000000e+00
8.500000e-01
1.000000e+00
8.500000e-01
1.000000e+00
8.500000e-01
1.000000e+00
8.500000e-01
1.000000e+00
8.500000e-01
1.000000e+00
8.500000e-01
1.000000e+00
8.500000e-01
1.000000e+00
8.500000e-01
1.000000e+00
8.500000e-01
1.000000e+00
8.500000e-01
1.000000e+00
8.500000e-01
1.000000e+00
8.500000e-01
1.000000e+00
8.500000e-01
1.000000e+00
8.500000e-01
1.000000e+00
8.500000e-01
1.000000e+00
8.500000e-01
1.000000e+00
8.500000e-01
1.000000e+00
8.500000e-01
1.000000e+00
8.500000e-01
1.000000e+00
8.500000e-01
1.000000e+00
8.500000e-01
1.000000e+00
8.500000e-01
1.000000e+00
8.500000e-01
1.000000e+00
8.500000e-01
1.000000e+00
8.500000e-01
1.000000e+00
8.500000e-01
1.000000e+00
8.500000e-01
1.000000e+00
8.500000e-01
1.000000e+00
8.500000e-01
1.000000e+00
8.500000e-01
1.000000e+00
8.500000e-01
1.000000e+00
8.500000e-01
1.000000e+00
8.500000e-01
1.000000e+00
8.500000e-01
1.000000e+00
8.500000e-01
1.000000e+00
8.500000e-01
1.000000e+00
8.500000e-01
1.000000e+00
8.500000e-01
1.000000e+00
8.500000e-01
1.000000e+00
8.500000e-01
1.000000e+00
8.500000e-01
1.000000e+00
8.500000e-01
1.000000e+00
8.500000e-01
1.000000e+00
</DataArray>
<DataArray type="Float32" Name="V5" format="ascii">
0.000000e+00
0.000000e+00
5.235988e-02
5.235988e-02
5.235988e-02
5.235988e-02
1.047198e-01
1.047198e-01
1.047198e-01
1.047198e-01
1.570796e-01
1.570796e-01
1.570796e-01
1.570796e-01
2.094395e-01
2.094395e-01
2.094395e-01
2.094395e-01
2.617994e-01
2.617994e-01
2.617994e-01
2.617994e-01
3.141593e-01
3.141593e-01
3.141593e-01
3.141593e-01
3.665191e-01
3.665191e-01
3.665191e-01
3.665191e-01
4.188790e-01
4.188790e-01
4.188790e-01
4.188790e-01
4.712389e-01
4.712389e-01
4.712389e-01
4.712389e-01
5.235988e-01
5.235988e-01
5.235988e-01
5.235988e-01
5.759587e-01
5.759587e-01
5.759587e-01
5.759587e-01
6.283185e-01
6.283185e-01
6.283185e-01
6.283185e-01
6.806784e-01
6.806784e-01
6.806784e-01
6.806784e-01
7.330383e-01
7.330383e-01
7.330383e-01
7.330383e-01
7.853982e-01
7.853982e-01
7.853982e-01
7.853982e-01
8.377580e-01
8.377580e-01
8.377580e-01
8.377580e-01
8.901179e-01
8.901179e-01
8.901179e-01
8.901179e-01
9.424778e-01
9.424778e-01
9.424778e-01
9.424778e-01
9.948377e-01
9.948377e-01
9.948377e-01
9.948377e-01
1.047198e+00
1.047198e+00
1.047198e+00
1.047198e+00
1.099557e+00
1.099557e+00
1.099557e+00
1.099557e+00
1.151917e+00
1.151917e+00
1.151917e+00
1.151917e+00
1.204277e+00
1.204277e+00
1.204277e+00
1.204277e+00
1.256637e+00
1.256637e+00
1.256637e+00
1.256637e+00
1.308997e+00
1.308997e+00
1.308997e+00
1.308997e+00
1.361357e+00
1.361357e+00
1.361357e+00
1.361357e+00
1.413717e+00
1.413717e+00
1.413717e+00
1.413717e+00
1.466077e+00
1.466077e+00
1.466077e+00
1.466077e+00
1.518436e+00
1.518436e+00
1.518436e+00
1.518436e+00
1.570796e+00
1.570796e+00
</DataArray>
</PointData>
</Piece></UnstructuredGrid>
</VTKFile>
