<?xml version="1.0"?>
<VTKFile type="UnstructuredGrid" version="0.1" byte_order="LittleEndian" compressor="vtkZLibDataCompressor">
<UnstructuredGrid>
<Piece NumberOfPoints="120" NumberOfCells="30">
<Points>
<DataArray type="Float32" NumberOfComponents="3" format="ascii">
0.000000e+00 6.161131e-01 0.000000e+00
0.000000e+00 7.100000e-01 0.000000e+00
6.134557e-02 6.161645e-01 0.000000e+00
6.125094e-02 7.100000e-01 0.000000e+00
6.134557e-02 6.161645e-01 0.000000e+00
6.125094e-02 7.100000e-01 0.000000e+00
1.226903e-01 6.162886e-01 0.000000e+00
1.225004e-01 7.100000e-01 0.000000e+00
1.226903e-01 6.162886e-01 0.000000e+00
1.225004e-01 7.100000e-01 0.000000e+00
1.840307e-01 6.164955e-01 0.000000e+00
1.837479e-01 7.100000e-01 0.000000e+00
1.840307e-01 6.164955e-01 0.000000e+00
1.837479e-01 7.100000e-01 0.000000e+00
2.453643e-01 6.167844e-01 0.000000e+00
2.449927e-01 7.100000e-01 0.000000e+00
2.453643e-01 6.167844e-01 0.000000e+00
2.449927e-01 7.100000e-01 0.000000e+00
3.066872e-01 6.171548e-01 0.000000e+00
3.062351e-01 7.100000e-01 0.000000e+00
3.066872e-01 6.171548e-01 0.000000e+00
3.062351e-01 7.100000e-01 0.000000e+00
3.679939e-01 6.176065e-01 0.000000e+00
3.674782e-01 7.100000e-01 0.000000e+00
3.679939e-01 6.176065e-01 0.000000e+00
3.674782e-01 7.100000e-01 0.000000e+00
4.292754e-01 6.181401e-01 0.000000e+00
4.287300e-01 7.100000e-01 0.000000e+00
4.292754e-01 6.181401e-01 0.000000e+00
4.287300e-01 7.100000e-01 0.000000e+00
4.905160e-01 6.187579e-01 0.000000e+00
4.900099e-01 7.100000e-01 0.000000e+00
4.905160e-01 6.187579e-01 0.000000e+00
4.900099e-01 7.100000e-01 0.000000e+00
5.516869e-01 6.194650e-01 0.000000e+00
5.513589e-01 7.100000e-01 0.000000e+00
5.516869e-01 6.194650e-01 0.000000e+00
5.513589e-01 7.100000e-01 0.000000e+00
6.127338e-01 6.202696e-01 0.000000e+00
6.128583e-01 7.100000e-01 0.000000e+00
6.127338e-01 6.202696e-01 0.000000e+00
6.128583e-01 7.100000e-01 0.000000e+00
6.735507e-01 6.211788e-01 0.000000e+00
6.746586e-01 7.100000e-01 0.000000e+00
6.735507e-01 6.211788e-01 0.000000e+00
6.746586e-01 7.100000e-01 0.000000e+00
7.339290e-01 6.221778e-01 0.000000e+00
7.370088e-01 7.100000e-01 0.000000e+00
7.339290e-01 6.221778e-01 0.000000e+00
7.370088e-01 7.100000e-01 0.000000e+00
7.934573e-01 6.231355e-01 0.000000e+00
8.002334e-01 7.100000e-01 0.000000e+00
7.934573e-01 6.231355e-01 0.000000e+00
8.002334e-01 7.100000e-01 0.000000e+00
8.514726e-01 6.235741e-01 0.000000e+00
8.643259e-01 7.100000e-01 0.000000e+00
8.514726e-01 6.235741e-01 0.000000e+00
8.643259e-01 7.100000e-01 0.000000e+00
9.083617e-01 6.216498e-01 0.000000e+00
9.270051e-01 7.074638e-01 0.000000e+00
9.083617e-01 6.216498e-01 0.000000e+00
9.270051e-01 7.074638e-01 0.000000e+00
9.629876e-01 6.117090e-01 0.000000e+00
9.886705e-01 6.943567e-01 0.000000e+00
9.629876e-01 6.117090e-01 0.000000e+00
9.886705e-01 6.943567e-01 0.000000e+00
1.015101e+00 5.947938e-01 0.000000e+00
1.048849e+00 6.732501e-01 0.000000e+00
1.015101e+00 5.947938e-01 0.000000e+00
1.048849e+00 6.732501e-01 0.000000e+00
1.064469e+00 5.712100e-01 0.000000e+00
1.106106e+00 6.446641e-01 0.000000e+00
1.064469e+00 5.712100e-01 0.000000e+00
1.106106e+00 6.446641e-01 0.000000e+00
1.110765e+00 5.417457e-01 0.000000e+00
1.159595e+00 6.095821e-01 0.000000e+00
1.110765e+00 5.417457e-01 0.000000e+00
1.159595e+00 6.095821e-01 0.000000e+00
1.153681e+00 5.070999e-01 0.000000e+00
1.208811e+00 5.689311e-01 0.000000e+00
1.153681e+00 5.070999e-01 0.000000e+00
1.208811e+00 5.689311e-01 0.000000e+00
1.192968e+00 4.679443e-01 0.000000e+00
1.253492e+00 5.235610e-01 0.000000e+00
1.192968e+00 4.679443e-01 0.000000e+00
1.253492e+00 5.235610e-01 0.000000e+00
1.228438e+00 4.248991e-01 0.000000e+00
1.293508e+00 4.742147e-01 0.000000e+00
1.228438e+00 4.248991e-01 0.000000e+00
1.293508e+00 4.742147e-01 0.000000e+00
1.259951e+00 3.785326e-01 0.000000e+00
1.328804e+00 4.215362e-01 0.000000e+00
1.259951e+00 3.785326e-01 0.000000e+00
1.328804e+00 4.215362e-01 0.000000e+00
1.287405e+00 3.293640e-01 0.000000e+00
1.359364e+00 3.660865e-01 0.000000e+00
1.287405e+00 3.293640e-01 0.000000e+00
1.359364e+00 3.660865e-01 0.000000e+00
1.310726e+00 2.778691e-01 0.000000e+00
1.385193e+00 3.083604e-01 0.000000e+00
1.310726e+00 2.778691e-01 0.000000e+00
1.385193e+00 3.083604e-01 0.000000e+00
1.329863e+00 2.244875e-01 0.000000e+00
1.406302e+00 2.488020e-01 0.000000e+00
1.329863e+00 2.244875e-01 0.000000e+00
1.406302e+00 2.488020e-01 0.000000e+00
1.344780e+00 1.696295e-01 0.000000e+00
1.422704e+00 1.878172e-01 0.000000e+00
1.344780e+00 1.696295e-01 0.000000e+00
1.422704e+00 1.878172e-01 0.000000e+00
1.355451e+00 1.136830e-01 0.000000e+00
1.434410e+00 1.257844e-01 0.000000e+00
1.355451e+00 1.136830e-01 0.000000e+00
1.434410e+00 1.257844e-01 0.000000e+00
1.361860e+00 5.701945e-02 0.000000e+00
1.441431e+00 6.306293e-02 0.000000e+00
1.361860e+00 5.701945e-02 0.000000e+00
1.441431e+00 6.306293e-02 0.000000e+00
1.363997e+00 6.678930e-12 0.000000e+00
1.443770e+00 7.069550e-12 0.000000e+00
</DataArray>
</Points>
<Cells>
<DataArray type="Int32" Name="connectivity" format="ascii">
0 1 3 2
4 5 7 6
8 9 11 10
12 13 15 14
16 17 19 18
20 21 23 22
24 25 27 26
28 29 31 30
32 33 35 34
36 37 39 38
40 41 43 42
44 45 47 46
48 49 51 50
52 53 55 54
56 57 59 58
60 61 63 62
64 65 67 66
68 69 71 70
72 73 75 74
76 77 79 78
80 81 83 82
84 85 87 86
88 89 91 90
92 93 95 94
96 97 99 98
100 101 103 102
104 105 107 106
108 109 111 110
112 113 115 114
116 117 119 118
</DataArray>
<DataArray type="Int32" Name="offsets" format="ascii">
4
8
12
16
20
24
28
32
36
40
44
48
52
56
60
64
68
72
76
80
84
88
92
96
100
104
108
112
116
120
</DataArray>
<DataArray type="UInt8" Name="types" format="ascii">
9
9
9
9
9
9
9
9
9
9
9
9
9
9
9
9
9
9
9
9
9
9
9
9
9
9
9
9
9
9
</DataArray>
</Cells>
<PointData>
<DataArray type="Float32" Name="V1" format="ascii">
2.155083e+01
-3.380783e-01
2.158037e+01
-3.085380e-01
2.162167e+01
-3.366418e-01
2.170111e+01
-2.572030e-01
2.178612e+01
-3.142402e-01
2.192057e+01
-1.797897e-01
2.204817e+01
-2.666216e-01
2.223900e+01
-7.579007e-02
2.241005e+01
-1.929406e-01
2.265930e+01
5.631745e-02
2.287403e+01
-9.136418e-02
2.318458e+01
2.191864e-01
2.344131e+01
4.182732e-02
2.381704e+01
4.175560e-01
2.410942e+01
2.141470e-01
2.455569e+01
6.604185e-01
2.486683e+01
4.409697e-01
2.539151e+01
9.656487e-01
2.568211e+01
7.541260e-01
2.629778e+01
1.369795e+00
2.648293e+01
1.219984e+00
2.721151e+01
1.948559e+00
2.711796e+01
1.977490e+00
2.800029e+01
2.859824e+00
2.729386e+01
3.315621e+00
2.842160e+01
4.443368e+00
2.646763e+01
5.894623e+00
2.810693e+01
7.533919e+00
2.421708e+01
1.132591e+01
2.652114e+01
1.362998e+01
2.399049e+01
1.524920e+01
2.529144e+01
1.655015e+01
2.457179e+01
1.709145e+01
2.581057e+01
1.833023e+01
2.576941e+01
1.837381e+01
2.697590e+01
1.958030e+01
2.730447e+01
1.931832e+01
2.844947e+01
2.046333e+01
2.895017e+01
2.005415e+01
3.000635e+01
2.111033e+01
3.057428e+01
2.064683e+01
3.152680e+01
2.159936e+01
3.209930e+01
2.113585e+01
3.294193e+01
2.197848e+01
3.348283e+01
2.154495e+01
3.421479e+01
2.227691e+01
3.470352e+01
2.188911e+01
3.532703e+01
2.251262e+01
3.575247e+01
2.217807e+01
3.627114e+01
2.269674e+01
3.662779e+01
2.241844e+01
3.704558e+01
2.283622e+01
3.733112e+01
2.261479e+01
3.765177e+01
2.293544e+01
3.786558e+01
2.277042e+01
3.809224e+01
2.299708e+01
3.823447e+01
2.288768e+01
3.836949e+01
2.302271e+01
3.844048e+01
2.296821e+01
3.848533e+01
2.301306e+01
</DataArray>
<DataArray type="Float32" Name="V2" format="ascii">
6.161131e-01
7.100000e-01
6.185306e-01
7.122326e-01
6.185306e-01
7.122326e-01
6.257372e-01
7.189153e-01
6.257372e-01
7.189153e-01
6.376942e-01
7.300032e-01
6.376942e-01
7.300032e-01
6.543203e-01
7.454216e-01
6.543203e-01
7.454216e-01
6.755023e-01
7.650668e-01
6.755023e-01
7.650668e-01
7.010951e-01
7.888071e-01
7.010951e-01
7.888071e-01
7.309220e-01
8.164852e-01
7.309220e-01
8.164852e-01
7.647743e-01
8.479223e-01
7.647743e-01
8.479223e-01
8.024080e-01
8.829263e-01
8.024080e-01
8.829263e-01
8.435361e-01
9.213072e-01
8.435361e-01
9.213072e-01
8.878064e-01
9.629015e-01
8.878064e-01
9.629015e-01
9.347450e-01
1.007605e+00
9.347450e-01
1.007605e+00
9.836061e-01
1.055377e+00
9.836061e-01
1.055377e+00
1.033152e+00
1.105980e+00
1.033152e+00
1.105980e+00
1.081882e+00
1.155744e+00
1.081882e+00
1.155744e+00
1.124952e+00
1.199341e+00
1.124952e+00
1.199341e+00
1.163197e+00
1.238799e+00
1.163197e+00
1.238799e+00
1.196922e+00
1.273783e+00
1.196922e+00
1.273783e+00
1.226622e+00
1.304520e+00
1.226622e+00
1.304520e+00
1.252667e+00
1.331327e+00
1.252667e+00
1.331327e+00
1.275385e+00
1.354562e+00
1.275385e+00
1.354562e+00
1.295056e+00
1.374559e+00
1.295056e+00
1.374559e+00
1.311920e+00
1.391610e+00
1.311920e+00
1.391610e+00
1.326174e+00
1.405959e+00
1.326174e+00
1.405959e+00
1.337982e+00
1.417803e+00
1.337982e+00
1.417803e+00
1.347476e+00
1.427300e+00
1.347476e+00
1.427300e+00
1.354760e+00
1.434569e+00
1.354760e+00
1.434569e+00
1.359909e+00
1.439701e+00
1.359909e+00
1.439701e+00
1.362977e+00
1.442756e+00
1.362977e+00
1.442756e+00
1.363997e+00
1.443770e+00
</DataArray>
<DataArray type="Float32" Name="V3" format="ascii">
0.000000e+00
0.000000e+00
2.901394e-02
2.400847e-02
2.901394e-02
2.400847e-02
5.759854e-02
4.761409e-02
5.759854e-02
4.761409e-02
8.532388e-02
7.041718e-02
8.532388e-02
7.041718e-02
1.117658e-01
9.202168e-02
1.117658e-01
9.202168e-02
1.365056e-01
1.120389e-01
1.365056e-01
1.120389e-01
1.591321e-01
1.300904e-01
1.591321e-01
1.300904e-01
1.792415e-01
1.458127e-01
1.792415e-01
1.458127e-01
1.964371e-01
1.588633e-01
1.964371e-01
1.588633e-01
2.103254e-01
1.689311e-01
2.103254e-01
1.689311e-01
2.205082e-01
1.757509e-01
2.205082e-01
1.757509e-01
2.265689e-01
1.791226e-01
2.265689e-01
1.791226e-01
2.280541e-01
1.789251e-01
2.280541e-01
1.789251e-01
2.244802e-01
1.750807e-01
2.244802e-01
1.750807e-01
2.155150e-01
1.672366e-01
2.155150e-01
1.672366e-01
2.027359e-01
1.552391e-01
2.027359e-01
1.552391e-01
1.897761e-01
1.455421e-01
1.897761e-01
1.455421e-01
1.765821e-01
1.368487e-01
1.765821e-01
1.368487e-01
1.635606e-01
1.286087e-01
1.635606e-01
1.286087e-01
1.506200e-01
1.203220e-01
1.506200e-01
1.203220e-01
1.376789e-01
1.116969e-01
1.376789e-01
1.116969e-01
1.246548e-01
1.025774e-01
1.246548e-01
1.025774e-01
1.114862e-01
9.290047e-02
1.114862e-01
9.290047e-02
9.813548e-02
8.266274e-02
9.813548e-02
8.266274e-02
8.458619e-02
7.189770e-02
8.458619e-02
7.189770e-02
7.083995e-02
6.066109e-02
7.083995e-02
6.066109e-02
5.691223e-02
4.902159e-02
5.691223e-02
4.902159e-02
4.282884e-02
3.705510e-02
4.282884e-02
3.705510e-02
2.862299e-02
2.484139e-02
2.862299e-02
2.484139e-02
1.433292e-02
1.246216e-02
1.433292e-02
1.246216e-02
0.000000e+00
0.000000e+00
</DataArray>
<DataArray type="Float32" Name="V4" format="ascii">
8.500000e-01
1.000000e+00
8.500000e-01
1.000000e+00
8.500000e-01
1.000000e+00
8.500000e-01
1.000000e+00
8.500000e-01
1.000000e+00
8.500000e-01
1.000000e+00
8.500000e-01
1.000000e+00
8.500000e-01
1.000000e+00
8.500000e-01
1.000000e+00
8.500000e-01
1.000000e+00
8.500000e-01
1.000000e+00
8.500000e-01
1.000000e+00
8.500000e-01
1.000000e+00
8.500000e-01
1.000000e+00
8.500000e-01
1.000000e+00
8.500000e-01
1.000000e+00
8.500000e-01
1.000000e+00
8.500000e-01
1.000000e+00
8.500000e-01
1.000000e+00
8.500000e-01
1.000000e+00
8.500000e-01
1.000000e+00
8.500000e-01
1.000000e+00
8.500000e-01
1.000000e+00
8.500000e-01
1.000000e+00
8.500000e-01
1.000000e+00
8.500000e-01
1.000000e+00
8.500000e-01
1.000000e+00
8.500000e-01
1.000000e+00
8.500000e-01
1.000000e+00
8.500000e-01
1.000000e+00
8.500000e-01
1.000000e+00
8.500000e-01
1.000000e+00
8.500000e-01
1.000000e+00
8.500000e-01
1.000000e+00
8.500000e-01
1.000000e+00
8.500000e-01
1.000000e+00
8.500000e-01
1.000000e+00
8.500000e-01
1.000000e+00
8.500000e-01
1.000000e+00
8.500000e-01
1.000000e+00
8.500000e-01
1.000000e+00
8.500000e-01
1.000000e+00
8.500000e-01
1.000000e+00
8.500000e-01
1.000000e+00
8.500000e-01
1.000000e+00
8.500000e-01
1.000000e+00
8.500000e-01
1.000000e+00
8.500000e-01
1.000000e+00
8.500000e-01
1.000000e+00
8.500000e-01
1.000000e+00
8.500000e-01
1.000000e+00
8.500000e-01
1.000000e+00
8.500000e-01
1.000000e+00
8.500000e-01
1.000000e+00
8.500000e-01
1.000000e+00
8.500000e-01
1.000000e+00
8.500000e-01
1.000000e+00
8.500000e-01
1.000000e+00
8.500000e-01
1.000000e+00
8.500000e-01
1.000000e+00
</DataArray>
<DataArray type="Float32" Name="V5" format="ascii">
0.000000e+00
0.000000e+00
5.235988e-02
5.235988e-02
5.235988e-02
5.235988e-02
1.047198e-01
1.047198e-01
1.047198e-01
1.047198e-01
1.570796e-01
1.570796e-01
1.570796e-01
1.570796e-01
2.094395e-01
2.094395e-01
2.094395e-01
2.094395e-01
2.617994e-01
2.617994e-01
2.617994e-01
2.617994e-01
3.141593e-01
3.141593e-01
3.141593e-01
3.141593e-01
3.665191e-01
3.665191e-01
3.665191e-01
3.665191e-01
4.188790e-01
4.188790e-01
4.188790e-01
4.188790e-01
4.712389e-01
4.712389e-01
4.712389e-01
4.712389e-01
5.235988e-01
5.235988e-01
5.235988e-01
5.235988e-01
5.759587e-01
5.759587e-01
5.759587e-01
5.759587e-01
6.283185e-01
6.283185e-01
6.283185e-01
6.283185e-01
6.806784e-01
6.806784e-01
6.806784e-01
6.806784e-01
7.330383e-01
7.330383e-01
7.330383e-01
7.330383e-01
7.853982e-01
7.853982e-01
7.853982e-01
7.853982e-01
8.377580e-01
8.377580e-01
8.377580e-01
8.377580e-01
8.901179e-01
8.901179e-01
8.901179e-01
8.901179e-01
9.424778e-01
9.424778e-01
9.424778e-01
9.424778e-01
9.948377e-01
9.948377e-01
9.948377e-01
9.948377e-01
1.047198e+00
1.047198e+00
1.047198e+00
1.047198e+00
1.099557e+00
1.099557e+00
1.099557e+00
1.099557e+00
1.151917e+00
1.151917e+00
1.151917e+00
1.151917e+00
1.204277e+00
1.204277e+00
1.204277e+00
1.204277e+00
1.256637e+00
1.256637e+00
1.256637e+00
1.256637e+00
1.308997e+00
1.308997e+00
1.308997e+00
1.308997e+00
1.361357e+00
1.361357e+00
1.361357e+00
1.361357e+00
1.413717e+00
1.413717e+00
1.413717e+00
1.413717e+00
1.466077e+00
1.466077e+00
1.466077e+00
1.466077e+00
1.518436e+00
1.518436e+00
1.518436e+00
1.518436e+00
1.570796e+00
1.570796e+00
</DataArray>
</PointData>
</Piece></UnstructuredGrid>
</VTKFile>
