<?xml version="1.0"?>
<VTKFile type="UnstructuredGrid" version="0.1" byte_order="LittleEndian" compressor="vtkZLibDataCompressor">
<UnstructuredGrid>
<Piece NumberOfPoints="120" NumberOfCells="30">
<Points>
<DataArray type="Float32" NumberOfComponents="3" format="ascii">
0.000000e+00 4.338193e-01 0.000000e+00
0.000000e+00 4.900000e-01 0.000000e+00
7.925409e-02 4.338592e-01 0.000000e+00
7.922826e-02 4.900000e-01 0.000000e+00
7.925409e-02 4.338592e-01 0.000000e+00
7.922826e-02 4.900000e-01 0.000000e+00
1.584995e-01 4.339217e-01 0.000000e+00
1.584469e-01 4.900000e-01 0.000000e+00
1.584995e-01 4.339217e-01 0.000000e+00
1.584469e-01 4.900000e-01 0.000000e+00
2.377236e-01 4.340254e-01 0.000000e+00
2.376447e-01 4.900000e-01 0.000000e+00
2.377236e-01 4.340254e-01 0.000000e+00
2.376447e-01 4.900000e-01 0.000000e+00
3.169157e-01 4.341702e-01 0.000000e+00
3.168110e-01 4.900000e-01 0.000000e+00
3.169157e-01 4.341702e-01 0.000000e+00
3.168110e-01 4.900000e-01 0.000000e+00
3.960648e-01 4.343557e-01 0.000000e+00
3.959347e-01 4.900000e-01 0.000000e+00
3.960648e-01 4.343557e-01 0.000000e+00
3.959347e-01 4.900000e-01 0.000000e+00
4.751592e-01 4.345813e-01 0.000000e+00
4.750044e-01 4.900000e-01 0.000000e+00
4.751592e-01 4.345813e-01 0.000000e+00
4.750044e-01 4.900000e-01 0.000000e+00
5.541866e-01 4.348461e-01 0.000000e+00
5.540083e-01 4.900000e-01 0.000000e+00
5.541866e-01 4.348461e-01 0.000000e+00
5.540083e-01 4.900000e-01 0.000000e+00
6.331337e-01 4.351494e-01 0.000000e+00
6.329338e-01 4.900000e-01 0.000000e+00
6.331337e-01 4.351494e-01 0.000000e+00
6.329338e-01 4.900000e-01 0.000000e+00
7.119866e-01 4.354902e-01 0.000000e+00
7.117680e-01 4.900000e-01 0.000000e+00
7.119866e-01 4.354902e-01 0.000000e+00
7.117680e-01 4.900000e-01 0.000000e+00
7.907296e-01 4.358673e-01 0.000000e+00
7.904975e-01 4.900000e-01 0.000000e+00
7.907296e-01 4.358673e-01 0.000000e+00
7.904975e-01 4.900000e-01 0.000000e+00
8.693455e-01 4.362795e-01 0.000000e+00
8.691088e-01 4.900000e-01 0.000000e+00
8.693455e-01 4.362795e-01 0.000000e+00
8.691088e-01 4.900000e-01 0.000000e+00
9.478147e-01 4.367253e-01 0.000000e+00
9.475892e-01 4.900000e-01 0.000000e+00
9.478147e-01 4.367253e-01 0.000000e+00
9.475892e-01 4.900000e-01 0.000000e+00
1.026114e+00 4.372029e-01 0.000000e+00
1.025928e+00 4.900000e-01 0.000000e+00
1.026114e+00 4.372029e-01 0.000000e+00
1.025928e+00 4.900000e-01 0.000000e+00
1.104216e+00 4.377101e-01 0.000000e+00
1.104119e+00 4.900000e-01 0.000000e+00
1.104216e+00 4.377101e-01 0.000000e+00
1.104119e+00 4.900000e-01 0.000000e+00
1.182083e+00 4.382433e-01 0.000000e+00
1.182167e+00 4.900000e-01 0.000000e+00
1.182083e+00 4.382433e-01 0.000000e+00
1.182167e+00 4.900000e-01 0.000000e+00
1.259665e+00 4.387973e-01 0.000000e+00
1.260096e+00 4.900000e-01 0.000000e+00
1.259665e+00 4.387973e-01 0.000000e+00
1.260096e+00 4.900000e-01 0.000000e+00
1.336885e+00 4.393637e-01 0.000000e+00
1.337965e+00 4.900000e-01 0.000000e+00
1.336885e+00 4.393637e-01 0.000000e+00
1.337965e+00 4.900000e-01 0.000000e+00
1.413621e+00 4.399318e-01 0.000000e+00
1.415908e+00 4.900000e-01 0.000000e+00
1.413621e+00 4.399318e-01 0.000000e+00
1.415908e+00 4.900000e-01 0.000000e+00
1.489655e+00 4.404989e-01 0.000000e+00
1.494187e+00 4.900000e-01 0.000000e+00
1.489655e+00 4.404989e-01 0.000000e+00
1.494187e+00 4.900000e-01 0.000000e+00
1.564549e+00 4.411055e-01 0.000000e+00
1.573256e+00 4.900000e-01 0.000000e+00
1.564549e+00 4.411055e-01 0.000000e+00
1.573256e+00 4.900000e-01 0.000000e+00
1.637780e+00 4.417146e-01 0.000000e+00
1.652089e+00 4.900000e-01 0.000000e+00
1.637780e+00 4.417146e-01 0.000000e+00
1.652089e+00 4.900000e-01 0.000000e+00
1.708990e+00 4.327621e-01 0.000000e+00
1.727340e+00 4.779569e-01 0.000000e+00
1.708990e+00 4.327621e-01 0.000000e+00
1.727340e+00 4.779569e-01 0.000000e+00
1.774816e+00 4.071430e-01 0.000000e+00
1.798626e+00 4.487070e-01 0.000000e+00
1.774816e+00 4.071430e-01 0.000000e+00
1.798626e+00 4.487070e-01 0.000000e+00
1.833431e+00 3.690665e-01 0.000000e+00
1.862907e+00 4.059747e-01 0.000000e+00
1.833431e+00 3.690665e-01 0.000000e+00
1.862907e+00 4.059747e-01 0.000000e+00
1.883853e+00 3.210908e-01 0.000000e+00
1.918360e+00 3.525167e-01 0.000000e+00
1.883853e+00 3.210908e-01 0.000000e+00
1.918360e+00 3.525167e-01 0.000000e+00
1.925529e+00 2.653947e-01 0.000000e+00
1.964114e+00 2.908289e-01 0.000000e+00
1.925529e+00 2.653947e-01 0.000000e+00
1.964114e+00 2.908289e-01 0.000000e+00
1.958139e+00 2.038604e-01 0.000000e+00
1.999797e+00 2.230404e-01 0.000000e+00
1.958139e+00 2.038604e-01 0.000000e+00
1.999797e+00 2.230404e-01 0.000000e+00
1.981510e+00 1.381437e-01 0.000000e+00
2.025286e+00 1.509572e-01 0.000000e+00
1.981510e+00 1.381437e-01 0.000000e+00
2.025286e+00 1.509572e-01 0.000000e+00
1.995556e+00 6.973169e-02 0.000000e+00
2.040567e+00 7.614219e-02 0.000000e+00
1.995556e+00 6.973169e-02 0.000000e+00
2.040567e+00 7.614219e-02 0.000000e+00
2.000241e+00 9.794360e-12 0.000000e+00
2.045658e+00 1.001675e-11 0.000000e+00
</DataArray>
</Points>
<Cells>
<DataArray type="Int32" Name="connectivity" format="ascii">
0 1 3 2
4 5 7 6
8 9 11 10
12 13 15 14
16 17 19 18
20 21 23 22
24 25 27 26
28 29 31 30
32 33 35 34
36 37 39 38
40 41 43 42
44 45 47 46
48 49 51 50
52 53 55 54
56 57 59 58
60 61 63 62
64 65 67 66
68 69 71 70
72 73 75 74
76 77 79 78
80 81 83 82
84 85 87 86
88 89 91 90
92 93 95 94
96 97 99 98
100 101 103 102
104 105 107 106
108 109 111 110
112 113 115 114
116 117 119 118
</DataArray>
<DataArray type="Int32" Name="offsets" format="ascii">
4
8
12
16
20
24
28
32
36
40
44
48
52
56
60
64
68
72
76
80
84
88
92
96
100
104
108
112
116
120
</DataArray>
<DataArray type="UInt8" Name="types" format="ascii">
9
9
9
9
9
9
9
9
9
9
9
9
9
9
9
9
9
9
9
9
9
9
9
9
9
9
9
9
9
9
</DataArray>
</Cells>
<PointData>
<DataArray type="Float32" Name="V1" format="ascii">
1.649208e+02
5.445354e+00
1.650889e+02
5.613452e+00
1.653562e+02
5.440965e+00
1.658385e+02
5.923240e+00
1.663778e+02
5.572546e+00
1.671928e+02
6.387586e+00
1.680065e+02
5.854419e+00
1.691622e+02
7.010116e+00
1.702595e+02
6.289220e+00
1.717695e+02
7.799203e+00
1.731620e+02
6.882554e+00
1.750445e+02
8.765054e+00
1.767472e+02
7.642418e+00
1.790255e+02
9.920719e+00
1.810566e+02
8.579446e+00
1.837598e+02
1.128258e+01
1.861408e+02
9.707527e+00
1.893045e+02
1.287122e+01
1.920598e+02
1.104474e+01
1.957277e+02
1.471271e+01
1.988834e+02
1.261489e+01
2.031091e+02
1.684063e+01
2.066907e+02
1.445012e+01
2.115401e+02
1.929952e+01
2.155676e+02
1.659543e+01
2.211229e+02
2.215075e+01
2.255998e+02
1.911686e+01
2.319659e+02
2.548302e+01
2.368589e+02
2.211654e+01
2.441736e+02
2.943123e+01
2.493719e+02
2.576137e+01
2.578218e+02
3.421128e+01
2.630603e+02
3.034006e+01
2.729039e+02
4.018372e+01
2.776216e+02
3.638393e+01
2.892060e+02
4.796829e+01
2.923065e+02
4.494262e+01
3.060084e+02
5.864451e+01
3.055038e+02
5.823314e+01
3.213768e+02
7.410616e+01
3.114386e+02
8.237118e+01
3.324251e+02
1.033576e+02
3.179107e+02
1.174540e+02
3.391909e+02
1.387341e+02
3.359871e+02
1.393740e+02
3.550778e+02
1.584647e+02
3.601512e+02
1.551324e+02
3.782686e+02
1.732498e+02
3.863953e+02
1.677093e+02
4.030034e+02
1.843174e+02
4.117772e+02
1.780435e+02
4.262151e+02
1.924814e+02
4.342538e+02
1.865533e+02
4.459662e+02
1.982657e+02
4.524823e+02
1.933769e+02
4.610813e+02
2.019759e+02
4.656248e+02
1.985363e+02
4.708694e+02
2.037809e+02
4.731953e+02
2.020128e+02
4.749568e+02
2.037743e+02
</DataArray>
<DataArray type="Float32" Name="V2" format="ascii">
4.338193e-01
4.900000e-01
4.374125e-01
4.934750e-01
4.374125e-01
4.934750e-01
4.481123e-01
5.038779e-01
4.481123e-01
5.038779e-01
4.658699e-01
5.211431e-01
4.658699e-01
5.211431e-01
4.905730e-01
5.451610e-01
4.905730e-01
5.451610e-01
5.220645e-01
5.757791e-01
5.220645e-01
5.757791e-01
5.601436e-01
6.128021e-01
5.601436e-01
6.128021e-01
6.045665e-01
6.559932e-01
6.045665e-01
6.559932e-01
6.550475e-01
7.050747e-01
6.550475e-01
7.050747e-01
7.112597e-01
7.597291e-01
7.112597e-01
7.597291e-01
7.728369e-01
8.196012e-01
7.728369e-01
8.196012e-01
8.393742e-01
8.842992e-01
8.393742e-01
8.842992e-01
9.104297e-01
9.533973e-01
9.104297e-01
9.533973e-01
9.855252e-01
1.026439e+00
9.855252e-01
1.026439e+00
1.064147e+00
1.102941e+00
1.064147e+00
1.102941e+00
1.145744e+00
1.182401e+00
1.145744e+00
1.182401e+00
1.229726e+00
1.264308e+00
1.229726e+00
1.264308e+00
1.315455e+00
1.348161e+00
1.315455e+00
1.348161e+00
1.402229e+00
1.433509e+00
1.402229e+00
1.433509e+00
1.489243e+00
1.520004e+00
1.489243e+00
1.520004e+00
1.575492e+00
1.607480e+00
1.575492e+00
1.607480e+00
1.659807e+00
1.694477e+00
1.659807e+00
1.694477e+00
1.737260e+00
1.772406e+00
1.737260e+00
1.772406e+00
1.802841e+00
1.839965e+00
1.802841e+00
1.839965e+00
1.857744e+00
1.897183e+00
1.857744e+00
1.897183e+00
1.902766e+00
1.944231e+00
1.902766e+00
1.944231e+00
1.938630e+00
1.981660e+00
1.938630e+00
1.981660e+00
1.965922e+00
2.010068e+00
1.965922e+00
2.010068e+00
1.985095e+00
2.029971e+00
1.985095e+00
2.029971e+00
1.996471e+00
2.041756e+00
1.996471e+00
2.041756e+00
2.000241e+00
2.045658e+00
</DataArray>
<DataArray type="Float32" Name="V3" format="ascii">
0.000000e+00
0.000000e+00
5.643904e-02
5.347506e-02
5.643904e-02
5.347506e-02
1.122740e-01
1.063600e-01
1.122740e-01
1.063600e-01
1.669003e-01
1.580661e-01
1.669003e-01
1.580661e-01
2.197213e-01
2.080112e-01
2.197213e-01
2.080112e-01
2.701497e-01
2.556222e-01
2.701497e-01
2.556222e-01
3.176103e-01
3.003377e-01
3.176103e-01
3.003377e-01
3.615428e-01
3.416110e-01
3.615428e-01
3.416110e-01
4.014052e-01
3.789129e-01
4.014052e-01
3.789129e-01
4.366763e-01
4.117346e-01
4.366763e-01
4.117346e-01
4.668582e-01
4.395909e-01
4.668582e-01
4.395909e-01
4.914796e-01
4.620228e-01
4.914796e-01
4.620228e-01
5.100975e-01
4.786010e-01
5.100975e-01
4.786010e-01
5.222999e-01
4.889288e-01
5.222999e-01
4.889288e-01
5.277072e-01
4.926466e-01
5.277072e-01
4.926466e-01
5.259743e-01
4.894363e-01
5.259743e-01
4.894363e-01
5.167904e-01
4.790276e-01
5.167904e-01
4.790276e-01
4.998794e-01
4.612071e-01
4.998794e-01
4.612071e-01
4.749934e-01
4.358317e-01
4.749934e-01
4.358317e-01
4.418910e-01
4.028440e-01
4.418910e-01
4.028440e-01
4.002660e-01
3.622757e-01
4.002660e-01
3.622757e-01
3.499662e-01
3.134393e-01
3.499662e-01
3.134393e-01
2.997609e-01
2.659371e-01
2.997609e-01
2.659371e-01
2.559365e-01
2.256660e-01
2.559365e-01
2.256660e-01
2.155582e-01
1.895650e-01
2.155582e-01
1.895650e-01
1.774270e-01
1.560031e-01
1.774270e-01
1.560031e-01
1.407448e-01
1.238887e-01
1.407448e-01
1.238887e-01
1.049699e-01
9.254277e-02
1.049699e-01
9.254277e-02
6.973729e-02
6.156979e-02
6.973729e-02
6.156979e-02
3.480320e-02
3.075720e-02
3.480320e-02
3.075720e-02
0.000000e+00
0.000000e+00
</DataArray>
<DataArray type="Float32" Name="V4" format="ascii">
8.500000e-01
1.000000e+00
8.500000e-01
1.000000e+00
8.500000e-01
1.000000e+00
8.500000e-01
1.000000e+00
8.500000e-01
1.000000e+00
8.500000e-01
1.000000e+00
8.500000e-01
1.000000e+00
8.500000e-01
1.000000e+00
8.500000e-01
1.000000e+00
8.500000e-01
1.000000e+00
8.500000e-01
1.000000e+00
8.500000e-01
1.000000e+00
8.500000e-01
1.000000e+00
8.500000e-01
1.000000e+00
8.500000e-01
1.000000e+00
8.500000e-01
1.000000e+00
8.500000e-01
1.000000e+00
8.500000e-01
1.000000e+00
8.500000e-01
1.000000e+00
8.500000e-01
1.000000e+00
8.500000e-01
1.000000e+00
8.500000e-01
1.000000e+00
8.500000e-01
1.000000e+00
8.500000e-01
1.000000e+00
8.500000e-01
1.000000e+00
8.500000e-01
1.000000e+00
8.500000e-01
1.000000e+00
8.500000e-01
1.000000e+00
8.500000e-01
1.000000e+00
8.500000e-01
1.000000e+00
8.500000e-01
1.000000e+00
8.500000e-01
1.000000e+00
8.500000e-01
1.000000e+00
8.500000e-01
1.000000e+00
8.500000e-01
1.000000e+00
8.500000e-01
1.000000e+00
8.500000e-01
1.000000e+00
8.500000e-01
1.000000e+00
8.500000e-01
1.000000e+00
8.500000e-01
1.000000e+00
8.500000e-01
1.000000e+00
8.500000e-01
1.000000e+00
8.500000e-01
1.000000e+00
8.500000e-01
1.000000e+00
8.500000e-01
1.000000e+00
8.500000e-01
1.000000e+00
8.500000e-01
1.000000e+00
8.500000e-01
1.000000e+00
8.500000e-01
1.000000e+00
8.500000e-01
1.000000e+00
8.500000e-01
1.000000e+00
8.500000e-01
1.000000e+00
8.500000e-01
1.000000e+00
8.500000e-01
1.000000e+00
8.500000e-01
1.000000e+00
8.500000e-01
1.000000e+00
8.500000e-01
1.000000e+00
8.500000e-01
1.000000e+00
8.500000e-01
1.000000e+00
8.500000e-01
1.000000e+00
</DataArray>
<DataArray type="Float32" Name="V5" format="ascii">
0.000000e+00
0.000000e+00
5.235988e-02
5.235988e-02
5.235988e-02
5.235988e-02
1.047198e-01
1.047198e-01
1.047198e-01
1.047198e-01
1.570796e-01
1.570796e-01
1.570796e-01
1.570796e-01
2.094395e-01
2.094395e-01
2.094395e-01
2.094395e-01
2.617994e-01
2.617994e-01
2.617994e-01
2.617994e-01
3.141593e-01
3.141593e-01
3.141593e-01
3.141593e-01
3.665191e-01
3.665191e-01
3.665191e-01
3.665191e-01
4.188790e-01
4.188790e-01
4.188790e-01
4.188790e-01
4.712389e-01
4.712389e-01
4.712389e-01
4.712389e-01
5.235988e-01
5.235988e-01
5.235988e-01
5.235988e-01
5.759587e-01
5.759587e-01
5.759587e-01
5.759587e-01
6.283185e-01
6.283185e-01
6.283185e-01
6.283185e-01
6.806784e-01
6.806784e-01
6.806784e-01
6.806784e-01
7.330383e-01
7.330383e-01
7.330383e-01
7.330383e-01
7.853982e-01
7.853982e-01
7.853982e-01
7.853982e-01
8.377580e-01
8.377580e-01
8.377580e-01
8.377580e-01
8.901179e-01
8.901179e-01
8.901179e-01
8.901179e-01
9.424778e-01
9.424778e-01
9.424778e-01
9.424778e-01
9.948377e-01
9.948377e-01
9.948377e-01
9.948377e-01
1.047198e+00
1.047198e+00
1.047198e+00
1.047198e+00
1.099557e+00
1.099557e+00
1.099557e+00
1.099557e+00
1.151917e+00
1.151917e+00
1.151917e+00
1.151917e+00
1.204277e+00
1.204277e+00
1.204277e+00
1.204277e+00
1.256637e+00
1.256637e+00
1.256637e+00
1.256637e+00
1.308997e+00
1.308997e+00
1.308997e+00
1.308997e+00
1.361357e+00
1.361357e+00
1.361357e+00
1.361357e+00
1.413717e+00
1.413717e+00
1.413717e+00
1.413717e+00
1.466077e+00
1.466077e+00
1.466077e+00
1.466077e+00
1.518436e+00
1.518436e+00
1.518436e+00
1.518436e+00
1.570796e+00
1.570796e+00
</DataArray>
</PointData>
</Piece></UnstructuredGrid>
</VTKFile>
