<?xml version="1.0"?>
<VTKFile type="UnstructuredGrid" version="0.1" byte_order="LittleEndian" compressor="vtkZLibDataCompressor">
<UnstructuredGrid>
<Piece NumberOfPoints="120" NumberOfCells="30">
<Points>
<DataArray type="Float32" NumberOfComponents="3" format="ascii">
0.000000e+00 3.742212e-01 0.000000e+00
0.000000e+00 4.100000e-01 0.000000e+00
9.933835e-02 3.742658e-01 0.000000e+00
9.933020e-02 4.100000e-01 0.000000e+00
9.933835e-02 3.742658e-01 0.000000e+00
9.933020e-02 4.100000e-01 0.000000e+00
1.986683e-01 3.743081e-01 0.000000e+00
1.986522e-01 4.100000e-01 0.000000e+00
1.986683e-01 3.743081e-01 0.000000e+00
1.986522e-01 4.100000e-01 0.000000e+00
2.979760e-01 3.743769e-01 0.000000e+00
2.979516e-01 4.100000e-01 0.000000e+00
2.979760e-01 3.743769e-01 0.000000e+00
2.979516e-01 4.100000e-01 0.000000e+00
3.972505e-01 3.744729e-01 0.000000e+00
3.972174e-01 4.100000e-01 0.000000e+00
3.972505e-01 3.744729e-01 0.000000e+00
3.972174e-01 4.100000e-01 0.000000e+00
4.964800e-01 3.745961e-01 0.000000e+00
4.964379e-01 4.100000e-01 0.000000e+00
4.964800e-01 3.745961e-01 0.000000e+00
4.964379e-01 4.100000e-01 0.000000e+00
5.956528e-01 3.747460e-01 0.000000e+00
5.956012e-01 4.100000e-01 0.000000e+00
5.956528e-01 3.747460e-01 0.000000e+00
5.956012e-01 4.100000e-01 0.000000e+00
6.947561e-01 3.749222e-01 0.000000e+00
6.946943e-01 4.100000e-01 0.000000e+00
6.947561e-01 3.749222e-01 0.000000e+00
6.946943e-01 4.100000e-01 0.000000e+00
7.937765e-01 3.751244e-01 0.000000e+00
7.937039e-01 4.100000e-01 0.000000e+00
7.937765e-01 3.751244e-01 0.000000e+00
7.937039e-01 4.100000e-01 0.000000e+00
8.927000e-01 3.753520e-01 0.000000e+00
8.926157e-01 4.100000e-01 0.000000e+00
8.927000e-01 3.753520e-01 0.000000e+00
8.926157e-01 4.100000e-01 0.000000e+00
9.915113e-01 3.756044e-01 0.000000e+00
9.914144e-01 4.100000e-01 0.000000e+00
9.915113e-01 3.756044e-01 0.000000e+00
9.914144e-01 4.100000e-01 0.000000e+00
1.090194e+00 3.758809e-01 0.000000e+00
1.090084e+00 4.100000e-01 0.000000e+00
1.090194e+00 3.758809e-01 0.000000e+00
1.090084e+00 4.100000e-01 0.000000e+00
1.188730e+00 3.761808e-01 0.000000e+00
1.188607e+00 4.100000e-01 0.000000e+00
1.188730e+00 3.761808e-01 0.000000e+00
1.188607e+00 4.100000e-01 0.000000e+00
1.287101e+00 3.765033e-01 0.000000e+00
1.286965e+00 4.100000e-01 0.000000e+00
1.287101e+00 3.765033e-01 0.000000e+00
1.286965e+00 4.100000e-01 0.000000e+00
1.385285e+00 3.768473e-01 0.000000e+00
1.385138e+00 4.100000e-01 0.000000e+00
1.385285e+00 3.768473e-01 0.000000e+00
1.385138e+00 4.100000e-01 0.000000e+00
1.483257e+00 3.772112e-01 0.000000e+00
1.483108e+00 4.100000e-01 0.000000e+00
1.483257e+00 3.772112e-01 0.000000e+00
1.483108e+00 4.100000e-01 0.000000e+00
1.580990e+00 3.775931e-01 0.000000e+00
1.580855e+00 4.100000e-01 0.000000e+00
1.580990e+00 3.775931e-01 0.000000e+00
1.580855e+00 4.100000e-01 0.000000e+00
1.678452e+00 3.779894e-01 0.000000e+00
1.678361e+00 4.100000e-01 0.000000e+00
1.678452e+00 3.779894e-01 0.000000e+00
1.678361e+00 4.100000e-01 0.000000e+00
1.775602e+00 3.783946e-01 0.000000e+00
1.775617e+00 4.100000e-01 0.000000e+00
1.775602e+00 3.783946e-01 0.000000e+00
1.775617e+00 4.100000e-01 0.000000e+00
1.872387e+00 3.788002e-01 0.000000e+00
1.872624e+00 4.100000e-01 0.000000e+00
1.872387e+00 3.788002e-01 0.000000e+00
1.872624e+00 4.100000e-01 0.000000e+00
1.968736e+00 3.791953e-01 0.000000e+00
1.969421e+00 4.100000e-01 0.000000e+00
1.968736e+00 3.791953e-01 0.000000e+00
1.969421e+00 4.100000e-01 0.000000e+00
2.064542e+00 3.795755e-01 0.000000e+00
2.066111e+00 4.100000e-01 0.000000e+00
2.064542e+00 3.795755e-01 0.000000e+00
2.066111e+00 4.100000e-01 0.000000e+00
2.159624e+00 3.799668e-01 0.000000e+00
2.162929e+00 4.100000e-01 0.000000e+00
2.159624e+00 3.799668e-01 0.000000e+00
2.162929e+00 4.100000e-01 0.000000e+00
2.253661e+00 3.804585e-01 0.000000e+00
2.260287e+00 4.100000e-01 0.000000e+00
2.253661e+00 3.804585e-01 0.000000e+00
2.260287e+00 4.100000e-01 0.000000e+00
2.347267e+00 3.807224e-01 0.000000e+00
2.357899e+00 4.092794e-01 0.000000e+00
2.347267e+00 3.807224e-01 0.000000e+00
2.357899e+00 4.092794e-01 0.000000e+00
2.436081e+00 3.581152e-01 0.000000e+00
2.449459e+00 3.838960e-01 0.000000e+00
2.436081e+00 3.581152e-01 0.000000e+00
2.449459e+00 3.838960e-01 0.000000e+00
2.512106e+00 3.112754e-01 0.000000e+00
2.529876e+00 3.336784e-01 0.000000e+00
2.512106e+00 3.112754e-01 0.000000e+00
2.529876e+00 3.336784e-01 0.000000e+00
2.572308e+00 2.474066e-01 0.000000e+00
2.594366e+00 2.650293e-01 0.000000e+00
2.572308e+00 2.474066e-01 0.000000e+00
2.594366e+00 2.650293e-01 0.000000e+00
2.616078e+00 1.715411e-01 0.000000e+00
2.641183e+00 1.834875e-01 0.000000e+00
2.616078e+00 1.715411e-01 0.000000e+00
2.641183e+00 1.834875e-01 0.000000e+00
2.642913e+00 8.774374e-02 0.000000e+00
2.669703e+00 9.370963e-02 0.000000e+00
2.642913e+00 8.774374e-02 0.000000e+00
2.669703e+00 9.370963e-02 0.000000e+00
2.651973e+00 1.298562e-11 0.000000e+00
2.679293e+00 1.311939e-11 0.000000e+00
</DataArray>
</Points>
<Cells>
<DataArray type="Int32" Name="connectivity" format="ascii">
0 1 3 2
4 5 7 6
8 9 11 10
12 13 15 14
16 17 19 18
20 21 23 22
24 25 27 26
28 29 31 30
32 33 35 34
36 37 39 38
40 41 43 42
44 45 47 46
48 49 51 50
52 53 55 54
56 57 59 58
60 61 63 62
64 65 67 66
68 69 71 70
72 73 75 74
76 77 79 78
80 81 83 82
84 85 87 86
88 89 91 90
92 93 95 94
96 97 99 98
100 101 103 102
104 105 107 106
108 109 111 110
112 113 115 114
116 117 119 118
</DataArray>
<DataArray type="Int32" Name="offsets" format="ascii">
4
8
12
16
20
24
28
32
36
40
44
48
52
56
60
64
68
72
76
80
84
88
92
96
100
104
108
112
116
120
</DataArray>
<DataArray type="UInt8" Name="types" format="ascii">
9
9
9
9
9
9
9
9
9
9
9
9
9
9
9
9
9
9
9
9
9
9
9
9
9
9
9
9
9
9
</DataArray>
</Cells>
<PointData>
<DataArray type="Float32" Name="V1" format="ascii">
9.256779e+02
1.199221e+02
9.266144e+02
1.208586e+02
9.278579e+02
1.199649e+02
9.304687e+02
1.225756e+02
9.330185e+02
1.208413e+02
9.373784e+02
1.252011e+02
9.412659e+02
1.225997e+02
9.474154e+02
1.287492e+02
9.526841e+02
1.252556e+02
9.606957e+02
1.332672e+02
9.674025e+02
1.288401e+02
9.773725e+02
1.388101e+02
9.855916e+02
1.333970e+02
9.976412e+02
1.454467e+02
1.007466e+03
1.389831e+02
1.021745e+03
1.532618e+02
1.033291e+03
1.456697e+02
1.049981e+03
1.623590e+02
1.063387e+03
1.535442e+02
1.082707e+03
1.728637e+02
1.098137e+03
1.627139e+02
1.120351e+03
1.849279e+02
1.138000e+03
1.733090e+02
1.163426e+03
1.987356e+02
1.183514e+03
1.854889e+02
1.212537e+03
2.145119e+02
1.235316e+03
1.994490e+02
1.268402e+03
2.325351e+02
1.294144e+03
2.154339e+02
1.331867e+03
2.531565e+02
1.360848e+03
2.337549e+02
1.403923e+03
2.768305e+02
1.436383e+03
2.548228e+02
1.485725e+03
3.041647e+02
1.521781e+03
2.792052e+02
1.578580e+03
3.360038e+02
1.618076e+03
3.077391e+02
1.683905e+03
3.735682e+02
1.726137e+03
3.417749e+02
1.803046e+03
4.186833e+02
1.846324e+03
3.837516e+02
1.936739e+03
4.741671e+02
1.977713e+03
4.385992e+02
2.083725e+03
5.446113e+02
2.115915e+03
5.169050e+02
2.237748e+03
6.387383e+02
2.230160e+03
6.442995e+02
2.390871e+03
8.050110e+02
2.385320e+03
8.187793e+02
2.525942e+03
9.594011e+02
2.562646e+03
9.545488e+02
2.696328e+03
1.088231e+03
2.760780e+03
1.062634e+03
2.880097e+03
1.181951e+03
2.958540e+03
1.139171e+03
3.051684e+03
1.232314e+03
3.117892e+03
1.192544e+03
3.177577e+03
1.252229e+03
3.213136e+03
1.229929e+03
3.233776e+03
1.250568e+03
</DataArray>
<DataArray type="Float32" Name="V2" format="ascii">
3.742212e-01
4.100000e-01
3.789519e-01
4.146367e-01
3.789519e-01
4.146367e-01
3.930241e-01
4.285188e-01
3.930241e-01
4.285188e-01
4.163814e-01
4.515621e-01
4.163814e-01
4.515621e-01
4.488828e-01
4.836267e-01
4.488828e-01
4.836267e-01
4.903305e-01
5.245172e-01
4.903305e-01
5.245172e-01
5.404714e-01
5.739841e-01
5.404714e-01
5.739841e-01
5.989984e-01
6.317242e-01
5.989984e-01
6.317242e-01
6.655512e-01
6.973821e-01
6.655512e-01
6.973821e-01
7.397184e-01
7.705517e-01
7.397184e-01
7.705517e-01
8.210386e-01
8.507776e-01
8.210386e-01
8.507776e-01
9.090025e-01
9.375572e-01
9.090025e-01
9.375572e-01
1.003055e+00
1.030343e+00
1.003055e+00
1.030343e+00
1.102597e+00
1.128543e+00
1.102597e+00
1.128543e+00
1.206988e+00
1.231528e+00
1.206988e+00
1.231528e+00
1.315550e+00
1.338630e+00
1.315550e+00
1.338630e+00
1.427564e+00
1.449148e+00
1.427564e+00
1.449148e+00
1.542279e+00
1.562353e+00
1.542279e+00
1.562353e+00
1.658907e+00
1.677496e+00
1.658907e+00
1.677496e+00
1.776625e+00
1.793817e+00
1.776625e+00
1.793817e+00
1.894573e+00
1.910568e+00
1.894573e+00
1.910568e+00
2.011844e+00
2.027055e+00
2.011844e+00
2.027055e+00
2.127462e+00
2.142696e+00
2.127462e+00
2.142696e+00
2.240318e+00
2.257091e+00
2.240318e+00
2.257091e+00
2.350033e+00
2.368969e+00
2.350033e+00
2.368969e+00
2.445760e+00
2.465356e+00
2.445760e+00
2.465356e+00
2.521928e+00
2.543968e+00
2.521928e+00
2.543968e+00
2.579342e+00
2.603885e+00
2.579342e+00
2.603885e+00
2.619678e+00
2.645894e+00
2.619678e+00
2.645894e+00
2.643883e+00
2.670949e+00
2.643883e+00
2.670949e+00
2.651973e+00
2.679293e+00
</DataArray>
<DataArray type="Float32" Name="V3" format="ascii">
0.000000e+00
0.000000e+00
7.961465e-02
7.773633e-02
7.961465e-02
7.773633e-02
1.584541e-01
1.547072e-01
1.584541e-01
1.547072e-01
2.357420e-01
2.301451e-01
2.357420e-01
2.301451e-01
3.107123e-01
3.032934e-01
3.107123e-01
3.032934e-01
3.826103e-01
3.734064e-01
3.826103e-01
3.734064e-01
4.506966e-01
4.397534e-01
4.506966e-01
4.397534e-01
5.142506e-01
5.016221e-01
5.142506e-01
5.016221e-01
5.725741e-01
5.583226e-01
5.725741e-01
5.583226e-01
6.249953e-01
6.091903e-01
6.249953e-01
6.091903e-01
6.708718e-01
6.535901e-01
6.708718e-01
6.535901e-01
7.095943e-01
6.909193e-01
7.095943e-01
6.909193e-01
7.405896e-01
7.206111e-01
7.405896e-01
7.206111e-01
7.633242e-01
7.421381e-01
7.633242e-01
7.421381e-01
7.773070e-01
7.550149e-01
7.773070e-01
7.550149e-01
7.820923e-01
7.588022e-01
7.820923e-01
7.588022e-01
7.772826e-01
7.531090e-01
7.772826e-01
7.531090e-01
7.625311e-01
7.375972e-01
7.625311e-01
7.375972e-01
7.375448e-01
7.119843e-01
7.375448e-01
7.119843e-01
7.020866e-01
6.760494e-01
7.020866e-01
6.760494e-01
6.559753e-01
6.296399e-01
6.559753e-01
6.296399e-01
5.990784e-01
5.726823e-01
5.990784e-01
5.726823e-01
5.312814e-01
5.051889e-01
5.312814e-01
5.051889e-01
4.524513e-01
4.272466e-01
4.524513e-01
4.272466e-01
3.632567e-01
3.393830e-01
3.632567e-01
3.393830e-01
2.845913e-01
2.631517e-01
2.845913e-01
2.631517e-01
2.178229e-01
1.996041e-01
2.178229e-01
1.996041e-01
1.580371e-01
1.440819e-01
1.580371e-01
1.440819e-01
1.028532e-01
9.359650e-02
1.028532e-01
9.359650e-02
5.069587e-02
4.614028e-02
5.069587e-02
4.614028e-02
0.000000e+00
0.000000e+00
</DataArray>
<DataArray type="Float32" Name="V4" format="ascii">
8.500000e-01
1.000000e+00
8.500000e-01
1.000000e+00
8.500000e-01
1.000000e+00
8.500000e-01
1.000000e+00
8.500000e-01
1.000000e+00
8.500000e-01
1.000000e+00
8.500000e-01
1.000000e+00
8.500000e-01
1.000000e+00
8.500000e-01
1.000000e+00
8.500000e-01
1.000000e+00
8.500000e-01
1.000000e+00
8.500000e-01
1.000000e+00
8.500000e-01
1.000000e+00
8.500000e-01
1.000000e+00
8.500000e-01
1.000000e+00
8.500000e-01
1.000000e+00
8.500000e-01
1.000000e+00
8.500000e-01
1.000000e+00
8.500000e-01
1.000000e+00
8.500000e-01
1.000000e+00
8.500000e-01
1.000000e+00
8.500000e-01
1.000000e+00
8.500000e-01
1.000000e+00
8.500000e-01
1.000000e+00
8.500000e-01
1.000000e+00
8.500000e-01
1.000000e+00
8.500000e-01
1.000000e+00
8.500000e-01
1.000000e+00
8.500000e-01
1.000000e+00
8.500000e-01
1.000000e+00
8.500000e-01
1.000000e+00
8.500000e-01
1.000000e+00
8.500000e-01
1.000000e+00
8.500000e-01
1.000000e+00
8.500000e-01
1.000000e+00
8.500000e-01
1.000000e+00
8.500000e-01
1.000000e+00
8.500000e-01
1.000000e+00
8.500000e-01
1.000000e+00
8.500000e-01
1.000000e+00
8.500000e-01
1.000000e+00
8.500000e-01
1.000000e+00
8.500000e-01
1.000000e+00
8.500000e-01
1.000000e+00
8.500000e-01
1.000000e+00
8.500000e-01
1.000000e+00
8.500000e-01
1.000000e+00
8.500000e-01
1.000000e+00
8.500000e-01
1.000000e+00
8.500000e-01
1.000000e+00
8.500000e-01
1.000000e+00
8.500000e-01
1.000000e+00
8.500000e-01
1.000000e+00
8.500000e-01
1.000000e+00
8.500000e-01
1.000000e+00
8.500000e-01
1.000000e+00
8.500000e-01
1.000000e+00
8.500000e-01
1.000000e+00
8.500000e-01
1.000000e+00
8.500000e-01
1.000000e+00
</DataArray>
<DataArray type="Float32" Name="V5" format="ascii">
0.000000e+00
0.000000e+00
5.235988e-02
5.235988e-02
5.235988e-02
5.235988e-02
1.047198e-01
1.047198e-01
1.047198e-01
1.047198e-01
1.570796e-01
1.570796e-01
1.570796e-01
1.570796e-01
2.094395e-01
2.094395e-01
2.094395e-01
2.094395e-01
2.617994e-01
2.617994e-01
2.617994e-01
2.617994e-01
3.141593e-01
3.141593e-01
3.141593e-01
3.141593e-01
3.665191e-01
3.665191e-01
3.665191e-01
3.665191e-01
4.188790e-01
4.188790e-01
4.188790e-01
4.188790e-01
4.712389e-01
4.712389e-01
4.712389e-01
4.712389e-01
5.235988e-01
5.235988e-01
5.235988e-01
5.235988e-01
5.759587e-01
5.759587e-01
5.759587e-01
5.759587e-01
6.283185e-01
6.283185e-01
6.283185e-01
6.283185e-01
6.806784e-01
6.806784e-01
6.806784e-01
6.806784e-01
7.330383e-01
7.330383e-01
7.330383e-01
7.330383e-01
7.853982e-01
7.853982e-01
7.853982e-01
7.853982e-01
8.377580e-01
8.377580e-01
8.377580e-01
8.377580e-01
8.901179e-01
8.901179e-01
8.901179e-01
8.901179e-01
9.424778e-01
9.424778e-01
9.424778e-01
9.424778e-01
9.948377e-01
9.948377e-01
9.948377e-01
9.948377e-01
1.047198e+00
1.047198e+00
1.047198e+00
1.047198e+00
1.099557e+00
1.099557e+00
1.099557e+00
1.099557e+00
1.151917e+00
1.151917e+00
1.151917e+00
1.151917e+00
1.204277e+00
1.204277e+00
1.204277e+00
1.204277e+00
1.256637e+00
1.256637e+00
1.256637e+00
1.256637e+00
1.308997e+00
1.308997e+00
1.308997e+00
1.308997e+00
1.361357e+00
1.361357e+00
1.361357e+00
1.361357e+00
1.413717e+00
1.413717e+00
1.413717e+00
1.413717e+00
1.466077e+00
1.466077e+00
1.466077e+00
1.466077e+00
1.518436e+00
1.518436e+00
1.518436e+00
1.518436e+00
1.570796e+00
1.570796e+00
</DataArray>
</PointData>
</Piece></UnstructuredGrid>
</VTKFile>
