<?xml version="1.0"?>
<VTKFile type="UnstructuredGrid" version="0.1" byte_order="LittleEndian" compressor="vtkZLibDataCompressor">
<UnstructuredGrid>
<Piece NumberOfPoints="120" NumberOfCells="30">
<Points>
<DataArray type="Float32" NumberOfComponents="3" format="ascii">
0.000000e+00 3.960906e-01 0.000000e+00
0.000000e+00 4.400000e-01 0.000000e+00
8.965270e-02 3.961317e-01 0.000000e+00
8.964030e-02 4.400000e-01 0.000000e+00
8.965270e-02 3.961317e-01 0.000000e+00
8.964030e-02 4.400000e-01 0.000000e+00
1.792964e-01 3.961816e-01 0.000000e+00
1.792711e-01 4.400000e-01 0.000000e+00
1.792964e-01 3.961816e-01 0.000000e+00
1.792711e-01 4.400000e-01 0.000000e+00
2.689174e-01 3.962637e-01 0.000000e+00
2.688792e-01 4.400000e-01 0.000000e+00
2.689174e-01 3.962637e-01 0.000000e+00
2.688792e-01 4.400000e-01 0.000000e+00
3.585044e-01 3.963785e-01 0.000000e+00
3.584533e-01 4.400000e-01 0.000000e+00
3.585044e-01 3.963785e-01 0.000000e+00
3.584533e-01 4.400000e-01 0.000000e+00
4.480457e-01 3.965256e-01 0.000000e+00
4.479815e-01 4.400000e-01 0.000000e+00
4.480457e-01 3.965256e-01 0.000000e+00
4.479815e-01 4.400000e-01 0.000000e+00
5.375290e-01 3.967046e-01 0.000000e+00
5.374516e-01 4.400000e-01 0.000000e+00
5.375290e-01 3.967046e-01 0.000000e+00
5.374516e-01 4.400000e-01 0.000000e+00
6.269415e-01 3.969150e-01 0.000000e+00
6.268508e-01 4.400000e-01 0.000000e+00
6.269415e-01 3.969150e-01 0.000000e+00
6.268508e-01 4.400000e-01 0.000000e+00
7.162696e-01 3.971562e-01 0.000000e+00
7.161655e-01 4.400000e-01 0.000000e+00
7.162696e-01 3.971562e-01 0.000000e+00
7.161655e-01 4.400000e-01 0.000000e+00
8.054987e-01 3.974275e-01 0.000000e+00
8.053814e-01 4.400000e-01 0.000000e+00
8.054987e-01 3.974275e-01 0.000000e+00
8.053814e-01 4.400000e-01 0.000000e+00
8.946135e-01 3.977280e-01 0.000000e+00
8.944835e-01 4.400000e-01 0.000000e+00
8.946135e-01 3.977280e-01 0.000000e+00
8.944835e-01 4.400000e-01 0.000000e+00
9.835970e-01 3.980570e-01 0.000000e+00
9.834560e-01 4.400000e-01 0.000000e+00
9.835970e-01 3.980570e-01 0.000000e+00
9.834560e-01 4.400000e-01 0.000000e+00
1.072431e+00 3.984134e-01 0.000000e+00
1.072282e+00 4.400000e-01 0.000000e+00
1.072431e+00 3.984134e-01 0.000000e+00
1.072282e+00 4.400000e-01 0.000000e+00
1.161095e+00 3.987961e-01 0.000000e+00
1.160945e+00 4.400000e-01 0.000000e+00
1.161095e+00 3.987961e-01 0.000000e+00
1.160945e+00 4.400000e-01 0.000000e+00
1.249566e+00 3.992033e-01 0.000000e+00
1.249428e+00 4.400000e-01 0.000000e+00
1.249566e+00 3.992033e-01 0.000000e+00
1.249428e+00 4.400000e-01 0.000000e+00
1.337818e+00 3.996330e-01 0.000000e+00
1.337716e+00 4.400000e-01 0.000000e+00
1.337818e+00 3.996330e-01 0.000000e+00
1.337716e+00 4.400000e-01 0.000000e+00
1.425817e+00 4.000818e-01 0.000000e+00
1.425798e+00 4.400000e-01 0.000000e+00
1.425817e+00 4.000818e-01 0.000000e+00
1.425798e+00 4.400000e-01 0.000000e+00
1.513523e+00 4.005442e-01 0.000000e+00
1.513673e+00 4.400000e-01 0.000000e+00
1.513523e+00 4.005442e-01 0.000000e+00
1.513673e+00 4.400000e-01 0.000000e+00
1.600880e+00 4.010113e-01 0.000000e+00
1.601358e+00 4.400000e-01 0.000000e+00
1.600880e+00 4.010113e-01 0.000000e+00
1.601358e+00 4.400000e-01 0.000000e+00
1.687806e+00 4.014706e-01 0.000000e+00
1.688913e+00 4.400000e-01 0.000000e+00
1.687806e+00 4.014706e-01 0.000000e+00
1.688913e+00 4.400000e-01 0.000000e+00
1.774172e+00 4.019129e-01 0.000000e+00
1.776478e+00 4.400000e-01 0.000000e+00
1.774172e+00 4.019129e-01 0.000000e+00
1.776478e+00 4.400000e-01 0.000000e+00
1.859751e+00 4.023599e-01 0.000000e+00
1.864341e+00 4.400000e-01 0.000000e+00
1.859751e+00 4.023599e-01 0.000000e+00
1.864341e+00 4.400000e-01 0.000000e+00
1.944102e+00 4.029267e-01 0.000000e+00
1.953049e+00 4.400000e-01 0.000000e+00
1.944102e+00 4.029267e-01 0.000000e+00
1.953049e+00 4.400000e-01 0.000000e+00
2.027015e+00 4.026079e-01 0.000000e+00
2.040338e+00 4.384549e-01 0.000000e+00
2.027015e+00 4.026079e-01 0.000000e+00
2.040338e+00 4.384549e-01 0.000000e+00
2.106159e+00 3.832810e-01 0.000000e+00
2.123041e+00 4.159147e-01 0.000000e+00
2.106159e+00 3.832810e-01 0.000000e+00
2.123041e+00 4.159147e-01 0.000000e+00
2.176290e+00 3.443071e-01 0.000000e+00
2.197852e+00 3.732181e-01 0.000000e+00
2.176290e+00 3.443071e-01 0.000000e+00
2.197852e+00 3.732181e-01 0.000000e+00
2.234957e+00 2.908955e-01 0.000000e+00
2.261068e+00 3.150221e-01 0.000000e+00
2.234957e+00 2.908955e-01 0.000000e+00
2.261068e+00 3.150221e-01 0.000000e+00
2.281222e+00 2.268748e-01 0.000000e+00
2.311027e+00 2.454142e-01 0.000000e+00
2.281222e+00 2.268748e-01 0.000000e+00
2.311027e+00 2.454142e-01 0.000000e+00
2.314617e+00 1.553001e-01 0.000000e+00
2.347037e+00 1.678122e-01 0.000000e+00
2.314617e+00 1.553001e-01 0.000000e+00
2.347037e+00 1.678122e-01 0.000000e+00
2.334796e+00 7.884575e-02 0.000000e+00
2.368751e+00 8.513545e-02 0.000000e+00
2.334796e+00 7.884575e-02 0.000000e+00
2.368751e+00 8.513545e-02 0.000000e+00
2.341544e+00 1.146558e-11 0.000000e+00
2.376004e+00 1.163431e-11 0.000000e+00
</DataArray>
</Points>
<Cells>
<DataArray type="Int32" Name="connectivity" format="ascii">
0 1 3 2
4 5 7 6
8 9 11 10
12 13 15 14
16 17 19 18
20 21 23 22
24 25 27 26
28 29 31 30
32 33 35 34
36 37 39 38
40 41 43 42
44 45 47 46
48 49 51 50
52 53 55 54
56 57 59 58
60 61 63 62
64 65 67 66
68 69 71 70
72 73 75 74
76 77 79 78
80 81 83 82
84 85 87 86
88 89 91 90
92 93 95 94
96 97 99 98
100 101 103 102
104 105 107 106
108 109 111 110
112 113 115 114
116 117 119 118
</DataArray>
<DataArray type="Int32" Name="offsets" format="ascii">
4
8
12
16
20
24
28
32
36
40
44
48
52
56
60
64
68
72
76
80
84
88
92
96
100
104
108
112
116
120
</DataArray>
<DataArray type="UInt8" Name="types" format="ascii">
9
9
9
9
9
9
9
9
9
9
9
9
9
9
9
9
9
9
9
9
9
9
9
9
9
9
9
9
9
9
</DataArray>
</Cells>
<PointData>
<DataArray type="Float32" Name="V1" format="ascii">
4.297601e+02
3.686853e+01
4.301901e+02
3.729852e+01
4.308154e+02
3.687549e+01
4.320386e+02
3.809869e+01
4.333067e+02
3.725676e+01
4.353624e+02
3.931250e+01
4.372850e+02
3.803995e+01
4.401925e+02
4.094750e+01
4.427911e+02
3.923201e+01
4.465848e+02
4.302568e+01
4.498874e+02
4.084740e+01
4.546128e+02
4.557282e+01
4.586560e+02
4.290641e+01
4.643710e+02
4.862134e+01
4.692002e+02
4.543550e+01
4.759761e+02
5.221144e+01
4.816467e+02
4.846809e+01
4.895710e+02
5.639241e+01
4.961488e+02
5.204589e+01
5.053275e+02
6.122457e+01
5.128891e+02
5.622070e+01
5.234503e+02
6.678185e+01
5.320832e+02
6.105704e+01
5.441819e+02
7.315583e+01
5.539823e+02
6.663641e+01
5.678076e+02
8.046175e+01
5.788749e+02
7.306384e+01
5.946594e+02
8.884834e+01
6.070840e+02
8.047927e+01
6.251189e+02
9.851409e+01
6.389555e+02
8.907720e+01
6.596139e+02
1.097356e+02
6.748284e+02
9.914313e+01
6.986021e+02
1.229168e+02
7.149692e+02
1.111245e+02
7.425214e+02
1.386767e+02
7.594377e+02
1.257803e+02
7.916577e+02
1.580004e+02
8.078265e+02
1.445234e+02
8.457989e+02
1.824957e+02
8.587528e+02
1.702509e+02
9.033495e+02
2.148477e+02
9.088012e+02
2.093012e+02
9.592195e+02
2.597195e+02
9.390112e+02
2.792515e+02
1.008310e+03
3.485499e+02
9.947202e+02
3.573504e+02
1.056083e+03
4.187131e+02
1.068883e+03
4.116544e+02
1.126452e+03
4.692237e+02
1.151791e+03
4.553879e+02
1.204118e+03
5.077146e+02
1.232854e+03
4.904253e+02
1.277288e+03
5.348599e+02
1.302946e+03
5.182409e+02
1.336819e+03
5.521143e+02
1.355354e+03
5.395197e+02
1.376548e+03
5.607136e+02
1.386123e+03
5.540312e+02
1.393330e+03
5.612389e+02
</DataArray>
<DataArray type="Float32" Name="V2" format="ascii">
3.960906e-01
4.400000e-01
4.002809e-01
4.440884e-01
4.002809e-01
4.440884e-01
4.127528e-01
4.563286e-01
4.127528e-01
4.563286e-01
4.334530e-01
4.766449e-01
4.334530e-01
4.766449e-01
4.622539e-01
5.049116e-01
4.622539e-01
5.049116e-01
4.989771e-01
5.409535e-01
4.989771e-01
5.409535e-01
5.433941e-01
5.845466e-01
5.433941e-01
5.845466e-01
5.952279e-01
6.354186e-01
5.952279e-01
6.354186e-01
6.541533e-01
6.932507e-01
6.541533e-01
6.932507e-01
7.197992e-01
7.576784e-01
7.197992e-01
7.576784e-01
7.917493e-01
8.282929e-01
7.917493e-01
8.282929e-01
8.695441e-01
9.046436e-01
8.695441e-01
9.046436e-01
9.526824e-01
9.862391e-01
9.526824e-01
9.862391e-01
1.040624e+00
1.072551e+00
1.040624e+00
1.072551e+00
1.132789e+00
1.163014e+00
1.132789e+00
1.163014e+00
1.228563e+00
1.257035e+00
1.228563e+00
1.257035e+00
1.327296e+00
1.353992e+00
1.327296e+00
1.353992e+00
1.428299e+00
1.453246e+00
1.428299e+00
1.453246e+00
1.530848e+00
1.554151e+00
1.530848e+00
1.554151e+00
1.634170e+00
1.656083e+00
1.634170e+00
1.656083e+00
1.737435e+00
1.758475e+00
1.737435e+00
1.758475e+00
1.839718e+00
1.860896e+00
1.839718e+00
1.860896e+00
1.939910e+00
1.963163e+00
1.939910e+00
1.963163e+00
2.036663e+00
2.061948e+00
2.036663e+00
2.061948e+00
2.121517e+00
2.147657e+00
2.121517e+00
2.147657e+00
2.191248e+00
2.219558e+00
2.191248e+00
2.219558e+00
2.246598e+00
2.277155e+00
2.246598e+00
2.277155e+00
2.288627e+00
2.320966e+00
2.288627e+00
2.320966e+00
2.318170e+00
2.351721e+00
2.318170e+00
2.351721e+00
2.335722e+00
2.369960e+00
2.335722e+00
2.369960e+00
2.341544e+00
2.376004e+00
</DataArray>
<DataArray type="Float32" Name="V3" format="ascii">
0.000000e+00
0.000000e+00
6.879790e-02
6.648963e-02
6.879790e-02
6.648963e-02
1.369019e-01
1.322965e-01
1.369019e-01
1.322965e-01
2.036173e-01
1.967377e-01
2.036173e-01
1.967377e-01
2.682585e-01
2.591391e-01
2.682585e-01
2.591391e-01
3.301506e-01
3.188365e-01
3.301506e-01
3.188365e-01
3.886320e-01
3.751794e-01
3.886320e-01
3.751794e-01
4.430587e-01
4.275337e-01
4.430587e-01
4.275337e-01
4.928068e-01
4.752856e-01
4.928068e-01
4.752856e-01
5.372763e-01
5.178443e-01
5.372763e-01
5.178443e-01
5.758940e-01
5.546455e-01
5.758940e-01
5.546455e-01
6.081165e-01
5.851544e-01
6.081165e-01
5.851544e-01
6.334334e-01
6.088689e-01
6.334334e-01
6.088689e-01
6.513699e-01
6.253228e-01
6.513699e-01
6.253228e-01
6.614896e-01
6.340885e-01
6.614896e-01
6.340885e-01
6.633968e-01
6.347810e-01
6.633968e-01
6.347810e-01
6.567392e-01
6.270613e-01
6.567392e-01
6.270613e-01
6.412098e-01
6.106408e-01
6.412098e-01
6.106408e-01
6.165487e-01
5.852872e-01
6.165487e-01
5.852872e-01
5.825434e-01
5.508329e-01
5.825434e-01
5.508329e-01
5.390192e-01
5.071879e-01
5.390192e-01
5.071879e-01
4.858039e-01
4.543504e-01
4.858039e-01
4.543504e-01
4.226455e-01
3.924164e-01
4.226455e-01
3.924164e-01
3.505502e-01
3.218590e-01
3.505502e-01
3.218590e-01
2.863171e-01
2.604974e-01
2.863171e-01
2.604974e-01
2.306901e-01
2.083450e-01
2.306901e-01
2.083450e-01
1.801350e-01
1.619644e-01
1.801350e-01
1.619644e-01
1.327801e-01
1.191316e-01
1.327801e-01
1.191316e-01
8.749397e-02
7.843923e-02
8.749397e-02
7.843923e-02
4.345607e-02
3.895208e-02
4.345607e-02
3.895208e-02
0.000000e+00
0.000000e+00
</DataArray>
<DataArray type="Float32" Name="V4" format="ascii">
8.500000e-01
1.000000e+00
8.500000e-01
1.000000e+00
8.500000e-01
1.000000e+00
8.500000e-01
1.000000e+00
8.500000e-01
1.000000e+00
8.500000e-01
1.000000e+00
8.500000e-01
1.000000e+00
8.500000e-01
1.000000e+00
8.500000e-01
1.000000e+00
8.500000e-01
1.000000e+00
8.500000e-01
1.000000e+00
8.500000e-01
1.000000e+00
8.500000e-01
1.000000e+00
8.500000e-01
1.000000e+00
8.500000e-01
1.000000e+00
8.500000e-01
1.000000e+00
8.500000e-01
1.000000e+00
8.500000e-01
1.000000e+00
8.500000e-01
1.000000e+00
8.500000e-01
1.000000e+00
8.500000e-01
1.000000e+00
8.500000e-01
1.000000e+00
8.500000e-01
1.000000e+00
8.500000e-01
1.000000e+00
8.500000e-01
1.000000e+00
8.500000e-01
1.000000e+00
8.500000e-01
1.000000e+00
8.500000e-01
1.000000e+00
8.500000e-01
1.000000e+00
8.500000e-01
1.000000e+00
8.500000e-01
1.000000e+00
8.500000e-01
1.000000e+00
8.500000e-01
1.000000e+00
8.500000e-01
1.000000e+00
8.500000e-01
1.000000e+00
8.500000e-01
1.000000e+00
8.500000e-01
1.000000e+00
8.500000e-01
1.000000e+00
8.500000e-01
1.000000e+00
8.500000e-01
1.000000e+00
8.500000e-01
1.000000e+00
8.500000e-01
1.000000e+00
8.500000e-01
1.000000e+00
8.500000e-01
1.000000e+00
8.500000e-01
1.000000e+00
8.500000e-01
1.000000e+00
8.500000e-01
1.000000e+00
8.500000e-01
1.000000e+00
8.500000e-01
1.000000e+00
8.500000e-01
1.000000e+00
8.500000e-01
1.000000e+00
8.500000e-01
1.000000e+00
8.500000e-01
1.000000e+00
8.500000e-01
1.000000e+00
8.500000e-01
1.000000e+00
8.500000e-01
1.000000e+00
8.500000e-01
1.000000e+00
8.500000e-01
1.000000e+00
8.500000e-01
1.000000e+00
8.500000e-01
1.000000e+00
</DataArray>
<DataArray type="Float32" Name="V5" format="ascii">
0.000000e+00
0.000000e+00
5.235988e-02
5.235988e-02
5.235988e-02
5.235988e-02
1.047198e-01
1.047198e-01
1.047198e-01
1.047198e-01
1.570796e-01
1.570796e-01
1.570796e-01
1.570796e-01
2.094395e-01
2.094395e-01
2.094395e-01
2.094395e-01
2.617994e-01
2.617994e-01
2.617994e-01
2.617994e-01
3.141593e-01
3.141593e-01
3.141593e-01
3.141593e-01
3.665191e-01
3.665191e-01
3.665191e-01
3.665191e-01
4.188790e-01
4.188790e-01
4.188790e-01
4.188790e-01
4.712389e-01
4.712389e-01
4.712389e-01
4.712389e-01
5.235988e-01
5.235988e-01
5.235988e-01
5.235988e-01
5.759587e-01
5.759587e-01
5.759587e-01
5.759587e-01
6.283185e-01
6.283185e-01
6.283185e-01
6.283185e-01
6.806784e-01
6.806784e-01
6.806784e-01
6.806784e-01
7.330383e-01
7.330383e-01
7.330383e-01
7.330383e-01
7.853982e-01
7.853982e-01
7.853982e-01
7.853982e-01
8.377580e-01
8.377580e-01
8.377580e-01
8.377580e-01
8.901179e-01
8.901179e-01
8.901179e-01
8.901179e-01
9.424778e-01
9.424778e-01
9.424778e-01
9.424778e-01
9.948377e-01
9.948377e-01
9.948377e-01
9.948377e-01
1.047198e+00
1.047198e+00
1.047198e+00
1.047198e+00
1.099557e+00
1.099557e+00
1.099557e+00
1.099557e+00
1.151917e+00
1.151917e+00
1.151917e+00
1.151917e+00
1.204277e+00
1.204277e+00
1.204277e+00
1.204277e+00
1.256637e+00
1.256637e+00
1.256637e+00
1.256637e+00
1.308997e+00
1.308997e+00
1.308997e+00
1.308997e+00
1.361357e+00
1.361357e+00
1.361357e+00
1.361357e+00
1.413717e+00
1.413717e+00
1.413717e+00
1.413717e+00
1.466077e+00
1.466077e+00
1.466077e+00
1.466077e+00
1.518436e+00
1.518436e+00
1.518436e+00
1.518436e+00
1.570796e+00
1.570796e+00
</DataArray>
</PointData>
</Piece></UnstructuredGrid>
</VTKFile>
