<?xml version="1.0"?>
<VTKFile type="UnstructuredGrid" version="0.1" byte_order="LittleEndian" compressor="vtkZLibDataCompressor">
<UnstructuredGrid>
<Piece NumberOfPoints="120" NumberOfCells="30">
<Points>
<DataArray type="Float32" NumberOfComponents="3" format="ascii">
0.000000e+00 8.620751e-01 0.000000e+00
0.000000e+00 9.700000e-01 0.000000e+00
5.716007e-02 8.621557e-01 0.000000e+00
5.721813e-02 9.700000e-01 0.000000e+00
5.716007e-02 8.621557e-01 0.000000e+00
5.721813e-02 9.700000e-01 0.000000e+00
1.142822e-01 8.623758e-01 0.000000e+00
1.145132e-01 9.700000e-01 0.000000e+00
1.142822e-01 8.623758e-01 0.000000e+00
1.145132e-01 9.700000e-01 0.000000e+00
1.713010e-01 8.627525e-01 0.000000e+00
1.719933e-01 9.700000e-01 0.000000e+00
1.713010e-01 8.627525e-01 0.000000e+00
1.719933e-01 9.700000e-01 0.000000e+00
2.280891e-01 8.632794e-01 0.000000e+00
2.298193e-01 9.700000e-01 0.000000e+00
2.280891e-01 8.632794e-01 0.000000e+00
2.298193e-01 9.700000e-01 0.000000e+00
2.844000e-01 8.638782e-01 0.000000e+00
2.882042e-01 9.700000e-01 0.000000e+00
2.844000e-01 8.638782e-01 0.000000e+00
2.882042e-01 9.700000e-01 0.000000e+00
3.397946e-01 8.642024e-01 0.000000e+00
3.473182e-01 9.700000e-01 0.000000e+00
3.397946e-01 8.642024e-01 0.000000e+00
3.473182e-01 9.700000e-01 0.000000e+00
3.939645e-01 8.636571e-01 0.000000e+00
4.067550e-01 9.700000e-01 0.000000e+00
3.939645e-01 8.636571e-01 0.000000e+00
4.067550e-01 9.700000e-01 0.000000e+00
4.473655e-01 8.599625e-01 0.000000e+00
4.655768e-01 9.658841e-01 0.000000e+00
4.473655e-01 8.599625e-01 0.000000e+00
4.655768e-01 9.658841e-01 0.000000e+00
4.991371e-01 8.516125e-01 0.000000e+00
5.241833e-01 9.552440e-01 0.000000e+00
4.991371e-01 8.516125e-01 0.000000e+00
5.241833e-01 9.552440e-01 0.000000e+00
5.496519e-01 8.387474e-01 0.000000e+00
5.821547e-01 9.394846e-01 0.000000e+00
5.496519e-01 8.387474e-01 0.000000e+00
5.821547e-01 9.394846e-01 0.000000e+00
5.988984e-01 8.214829e-01 0.000000e+00
6.387763e-01 9.188162e-01 0.000000e+00
5.988984e-01 8.214829e-01 0.000000e+00
6.387763e-01 9.188162e-01 0.000000e+00
6.467236e-01 8.001322e-01 0.000000e+00
6.935996e-01 8.936407e-01 0.000000e+00
6.467236e-01 8.001322e-01 0.000000e+00
6.935996e-01 8.936407e-01 0.000000e+00
6.929422e-01 7.749870e-01 0.000000e+00
7.463201e-01 8.643456e-01 0.000000e+00
6.929422e-01 7.749870e-01 0.000000e+00
7.463201e-01 8.643456e-01 0.000000e+00
7.373712e-01 7.463358e-01 0.000000e+00
7.967282e-01 8.312940e-01 0.000000e+00
7.373712e-01 7.463358e-01 0.000000e+00
7.967282e-01 8.312940e-01 0.000000e+00
7.798406e-01 7.144531e-01 0.000000e+00
8.446680e-01 7.948146e-01 0.000000e+00
7.798406e-01 7.144531e-01 0.000000e+00
8.446680e-01 7.948146e-01 0.000000e+00
8.201970e-01 6.795987e-01 0.000000e+00
8.900153e-01 7.552043e-01 0.000000e+00
8.201970e-01 6.795987e-01 0.000000e+00
8.900153e-01 7.552043e-01 0.000000e+00
8.583030e-01 6.420172e-01 0.000000e+00
9.326654e-01 7.127329e-01 0.000000e+00
8.583030e-01 6.420172e-01 0.000000e+00
9.326654e-01 7.127329e-01 0.000000e+00
8.940361e-01 6.019397e-01 0.000000e+00
9.725257e-01 6.676493e-01 0.000000e+00
8.940361e-01 6.019397e-01 0.000000e+00
9.725257e-01 6.676493e-01 0.000000e+00
9.272870e-01 5.595862e-01 0.000000e+00
1.009513e+00 6.201860e-01 0.000000e+00
9.272870e-01 5.595862e-01 0.000000e+00
1.009513e+00 6.201860e-01 0.000000e+00
9.579579e-01 5.151671e-01 0.000000e+00
1.043550e+00 5.705636e-01 0.000000e+00
9.579579e-01 5.151671e-01 0.000000e+00
1.043550e+00 5.705636e-01 0.000000e+00
9.859618e-01 4.688855e-01 0.000000e+00
1.074566e+00 5.189934e-01 0.000000e+00
9.859618e-01 4.688855e-01 0.000000e+00
1.074566e+00 5.189934e-01 0.000000e+00
1.011221e+00 4.209384e-01 0.000000e+00
1.102498e+00 4.656806e-01 0.000000e+00
1.011221e+00 4.209384e-01 0.000000e+00
1.102498e+00 4.656806e-01 0.000000e+00
1.033667e+00 3.715186e-01 0.000000e+00
1.127285e+00 4.108254e-01 0.000000e+00
1.033667e+00 3.715186e-01 0.000000e+00
1.127285e+00 4.108254e-01 0.000000e+00
1.053240e+00 3.208154e-01 0.000000e+00
1.148877e+00 3.546249e-01 0.000000e+00
1.053240e+00 3.208154e-01 0.000000e+00
1.148877e+00 3.546249e-01 0.000000e+00
1.069889e+00 2.690154e-01 0.000000e+00
1.167226e+00 2.972741e-01 0.000000e+00
1.069889e+00 2.690154e-01 0.000000e+00
1.167226e+00 2.972741e-01 0.000000e+00
1.083570e+00 2.163037e-01 0.000000e+00
1.182294e+00 2.389660e-01 0.000000e+00
1.083570e+00 2.163037e-01 0.000000e+00
1.182294e+00 2.389660e-01 0.000000e+00
1.094247e+00 1.628639e-01 0.000000e+00
1.194047e+00 1.798931e-01 0.000000e+00
1.094247e+00 1.628639e-01 0.000000e+00
1.194047e+00 1.798931e-01 0.000000e+00
1.101893e+00 1.088787e-01 0.000000e+00
1.202461e+00 1.202471e-01 0.000000e+00
1.101893e+00 1.088787e-01 0.000000e+00
1.202461e+00 1.202471e-01 0.000000e+00
1.106489e+00 5.453012e-02 0.000000e+00
1.207517e+00 6.021899e-02 0.000000e+00
1.106489e+00 5.453012e-02 0.000000e+00
1.207517e+00 6.021899e-02 0.000000e+00
1.108022e+00 5.425530e-12 0.000000e+00
1.209203e+00 5.920970e-12 0.000000e+00
</DataArray>
</Points>
<Cells>
<DataArray type="Int32" Name="connectivity" format="ascii">
0 1 3 2
4 5 7 6
8 9 11 10
12 13 15 14
16 17 19 18
20 21 23 22
24 25 27 26
28 29 31 30
32 33 35 34
36 37 39 38
40 41 43 42
44 45 47 46
48 49 51 50
52 53 55 54
56 57 59 58
60 61 63 62
64 65 67 66
68 69 71 70
72 73 75 74
76 77 79 78
80 81 83 82
84 85 87 86
88 89 91 90
92 93 95 94
96 97 99 98
100 101 103 102
104 105 107 106
108 109 111 110
112 113 115 114
116 117 119 118
</DataArray>
<DataArray type="Int32" Name="offsets" format="ascii">
4
8
12
16
20
24
28
32
36
40
44
48
52
56
60
64
68
72
76
80
84
88
92
96
100
104
108
112
116
120
</DataArray>
<DataArray type="UInt8" Name="types" format="ascii">
9
9
9
9
9
9
9
9
9
9
9
9
9
9
9
9
9
9
9
9
9
9
9
9
9
9
9
9
9
9
</DataArray>
</Cells>
<PointData>
<DataArray type="Float32" Name="V1" format="ascii">
1.366126e+01
4.155230e-02
1.367996e+01
6.025398e-02
1.366565e+01
6.773988e-02
1.371218e+01
1.142643e-01
1.366171e+01
1.469206e-01
1.374288e+01
2.280900e-01
1.359471e+01
3.275939e-01
1.372178e+01
4.546658e-01
1.335623e+01
7.093890e-01
1.356290e+01
9.160601e-01
1.276921e+01
1.488017e+00
1.316248e+01
1.881283e+00
1.156054e+01
3.144570e+00
1.235670e+01
3.940731e+00
1.027678e+01
5.904815e+00
1.098432e+01
6.612353e+00
9.945502e+00
7.283751e+00
1.023723e+01
7.575479e+00
9.841090e+00
7.903060e+00
1.011877e+01
8.180739e+00
9.959565e+00
8.316089e+00
1.022012e+01
8.576641e+00
1.019600e+01
8.598498e+00
1.043449e+01
8.836985e+00
1.047811e+01
8.801257e+00
1.069235e+01
9.015501e+00
1.076849e+01
8.952625e+00
1.095881e+01
9.142939e+00
1.104754e+01
9.069952e+00
1.121540e+01
9.237815e+00
1.130590e+01
9.163825e+00
1.145329e+01
9.311210e+00
1.153985e+01
9.240871e+00
1.166883e+01
9.369851e+00
1.174870e+01
9.305326e+00
1.186125e+01
9.417879e+00
1.193330e+01
9.359974e+00
1.203122e+01
9.457897e+00
1.209520e+01
9.406702e+00
1.218009e+01
9.491583e+00
1.223623e+01
9.446836e+00
1.230944e+01
9.520053e+00
1.235817e+01
9.481342e+00
1.242090e+01
9.544074e+00
1.246273e+01
9.510941e+00
1.251597e+01
9.564188e+00
1.255140e+01
9.536192e+00
1.259600e+01
9.580794e+00
1.262548e+01
9.557535e+00
1.266213e+01
9.594184e+00
1.268608e+01
9.575318e+00
1.271534e+01
9.604577e+00
1.273410e+01
9.589819e+00
1.275642e+01
9.612133e+00
1.277026e+01
9.601257e+00
1.278596e+01
9.616962e+00
1.279507e+01
9.609803e+00
1.280441e+01
9.619134e+00
1.280893e+01
9.615581e+00
1.281202e+01
9.618676e+00
</DataArray>
<DataArray type="Float32" Name="V2" format="ascii">
8.620751e-01
9.700000e-01
8.639657e-01
9.716652e-01
8.639657e-01
9.716652e-01
8.695973e-01
9.766561e-01
8.695973e-01
9.766561e-01
8.789280e-01
9.849634e-01
8.789280e-01
9.849634e-01
8.918371e-01
9.965853e-01
8.918371e-01
9.965853e-01
9.080504e-01
1.011541e+00
9.080504e-01
1.011541e+00
9.269076e-01
1.029852e+00
9.269076e-01
1.029852e+00
9.474777e-01
1.051341e+00
9.474777e-01
1.051341e+00
9.675747e-01
1.071746e+00
9.675747e-01
1.071746e+00
9.853958e-01
1.089103e+00
9.853958e-01
1.089103e+00
1.001202e+00
1.104695e+00
1.001202e+00
1.104695e+00
1.015137e+00
1.118487e+00
1.015137e+00
1.118487e+00
1.027455e+00
1.130658e+00
1.027455e+00
1.130658e+00
1.038361e+00
1.141397e+00
1.038361e+00
1.141397e+00
1.048033e+00
1.150887e+00
1.048033e+00
1.150887e+00
1.056625e+00
1.159289e+00
1.056625e+00
1.159289e+00
1.064265e+00
1.166741e+00
1.064265e+00
1.166741e+00
1.071061e+00
1.173354e+00
1.071061e+00
1.173354e+00
1.077102e+00
1.179224e+00
1.077102e+00
1.179224e+00
1.082461e+00
1.184426e+00
1.082461e+00
1.184426e+00
1.087199e+00
1.189022e+00
1.087199e+00
1.189022e+00
1.091368e+00
1.193064e+00
1.091368e+00
1.193064e+00
1.095007e+00
1.196591e+00
1.095007e+00
1.196591e+00
1.098152e+00
1.199638e+00
1.098152e+00
1.199638e+00
1.100829e+00
1.202232e+00
1.100829e+00
1.202232e+00
1.103060e+00
1.204394e+00
1.103060e+00
1.204394e+00
1.104863e+00
1.206142e+00
1.104863e+00
1.206142e+00
1.106252e+00
1.207488e+00
1.106252e+00
1.207488e+00
1.107238e+00
1.208443e+00
1.107238e+00
1.208443e+00
1.107826e+00
1.209013e+00
1.107826e+00
1.209013e+00
1.108022e+00
1.209203e+00
</DataArray>
<DataArray type="Float32" Name="V3" format="ascii">
0.000000e+00
0.000000e+00
1.195999e-02
6.373837e-03
1.195999e-02
6.373837e-03
2.351337e-02
1.249327e-02
2.351337e-02
1.249327e-02
3.422775e-02
1.813438e-02
3.422775e-02
1.813438e-02
4.361898e-02
2.312286e-02
4.361898e-02
2.312286e-02
5.112120e-02
2.732943e-02
5.112120e-02
2.732943e-02
5.611063e-02
3.057273e-02
5.611063e-02
3.057273e-02
5.829051e-02
3.212160e-02
5.829051e-02
3.212160e-02
5.891045e-02
3.246510e-02
5.891045e-02
3.246510e-02
5.811044e-02
3.337902e-02
5.811044e-02
3.337902e-02
5.663883e-02
3.441846e-02
5.663883e-02
3.441846e-02
5.486681e-02
3.529973e-02
5.486681e-02
3.529973e-02
5.290452e-02
3.586500e-02
5.290452e-02
3.586500e-02
5.080214e-02
3.604935e-02
5.080214e-02
3.604935e-02
4.857750e-02
3.584023e-02
4.857750e-02
3.584023e-02
4.623593e-02
3.525169e-02
4.623593e-02
3.525169e-02
4.377861e-02
3.431038e-02
4.377861e-02
3.431038e-02
4.120650e-02
3.304787e-02
4.120650e-02
3.304787e-02
3.852177e-02
3.149668e-02
3.852177e-02
3.149668e-02
3.572821e-02
2.968828e-02
3.572821e-02
2.968828e-02
3.283115e-02
2.765232e-02
3.283115e-02
2.765232e-02
2.983727e-02
2.541634e-02
2.983727e-02
2.541634e-02
2.675427e-02
2.300581e-02
2.675427e-02
2.300581e-02
2.359068e-02
2.044440e-02
2.359068e-02
2.044440e-02
2.035562e-02
1.775413e-02
2.035562e-02
1.775413e-02
1.705869e-02
1.495569e-02
1.705869e-02
1.495569e-02
1.370981e-02
1.206868e-02
1.370981e-02
1.206868e-02
1.031912e-02
9.111804e-03
1.031912e-02
9.111804e-03
6.896959e-03
6.103088e-03
6.896959e-03
6.103088e-03
3.453749e-03
3.060078e-03
3.453749e-03
3.060078e-03
0.000000e+00
0.000000e+00
</DataArray>
<DataArray type="Float32" Name="V4" format="ascii">
8.500000e-01
1.000000e+00
8.500000e-01
1.000000e+00
8.500000e-01
1.000000e+00
8.500000e-01
1.000000e+00
8.500000e-01
1.000000e+00
8.500000e-01
1.000000e+00
8.500000e-01
1.000000e+00
8.500000e-01
1.000000e+00
8.500000e-01
1.000000e+00
8.500000e-01
1.000000e+00
8.500000e-01
1.000000e+00
8.500000e-01
1.000000e+00
8.500000e-01
1.000000e+00
8.500000e-01
1.000000e+00
8.500000e-01
1.000000e+00
8.500000e-01
1.000000e+00
8.500000e-01
1.000000e+00
8.500000e-01
1.000000e+00
8.500000e-01
1.000000e+00
8.500000e-01
1.000000e+00
8.500000e-01
1.000000e+00
8.500000e-01
1.000000e+00
8.500000e-01
1.000000e+00
8.500000e-01
1.000000e+00
8.500000e-01
1.000000e+00
8.500000e-01
1.000000e+00
8.500000e-01
1.000000e+00
8.500000e-01
1.000000e+00
8.500000e-01
1.000000e+00
8.500000e-01
1.000000e+00
8.500000e-01
1.000000e+00
8.500000e-01
1.000000e+00
8.500000e-01
1.000000e+00
8.500000e-01
1.000000e+00
8.500000e-01
1.000000e+00
8.500000e-01
1.000000e+00
8.500000e-01
1.000000e+00
8.500000e-01
1.000000e+00
8.500000e-01
1.000000e+00
8.500000e-01
1.000000e+00
8.500000e-01
1.000000e+00
8.500000e-01
1.000000e+00
8.500000e-01
1.000000e+00
8.500000e-01
1.000000e+00
8.500000e-01
1.000000e+00
8.500000e-01
1.000000e+00
8.500000e-01
1.000000e+00
8.500000e-01
1.000000e+00
8.500000e-01
1.000000e+00
8.500000e-01
1.000000e+00
8.500000e-01
1.000000e+00
8.500000e-01
1.000000e+00
8.500000e-01
1.000000e+00
8.500000e-01
1.000000e+00
8.500000e-01
1.000000e+00
8.500000e-01
1.000000e+00
8.500000e-01
1.000000e+00
8.500000e-01
1.000000e+00
8.500000e-01
1.000000e+00
8.500000e-01
1.000000e+00
</DataArray>
<DataArray type="Float32" Name="V5" format="ascii">
0.000000e+00
0.000000e+00
5.235988e-02
5.235988e-02
5.235988e-02
5.235988e-02
1.047198e-01
1.047198e-01
1.047198e-01
1.047198e-01
1.570796e-01
1.570796e-01
1.570796e-01
1.570796e-01
2.094395e-01
2.094395e-01
2.094395e-01
2.094395e-01
2.617994e-01
2.617994e-01
2.617994e-01
2.617994e-01
3.141593e-01
3.141593e-01
3.141593e-01
3.141593e-01
3.665191e-01
3.665191e-01
3.665191e-01
3.665191e-01
4.188790e-01
4.188790e-01
4.188790e-01
4.188790e-01
4.712389e-01
4.712389e-01
4.712389e-01
4.712389e-01
5.235988e-01
5.235988e-01
5.235988e-01
5.235988e-01
5.759587e-01
5.759587e-01
5.759587e-01
5.759587e-01
6.283185e-01
6.283185e-01
6.283185e-01
6.283185e-01
6.806784e-01
6.806784e-01
6.806784e-01
6.806784e-01
7.330383e-01
7.330383e-01
7.330383e-01
7.330383e-01
7.853982e-01
7.853982e-01
7.853982e-01
7.853982e-01
8.377580e-01
8.377580e-01
8.377580e-01
8.377580e-01
8.901179e-01
8.901179e-01
8.901179e-01
8.901179e-01
9.424778e-01
9.424778e-01
9.424778e-01
9.424778e-01
9.948377e-01
9.948377e-01
9.948377e-01
9.948377e-01
1.047198e+00
1.047198e+00
1.047198e+00
1.047198e+00
1.099557e+00
1.099557e+00
1.099557e+00
1.099557e+00
1.151917e+00
1.151917e+00
1.151917e+00
1.151917e+00
1.204277e+00
1.204277e+00
1.204277e+00
1.204277e+00
1.256637e+00
1.256637e+00
1.256637e+00
1.256637e+00
1.308997e+00
1.308997e+00
1.308997e+00
1.308997e+00
1.361357e+00
1.361357e+00
1.361357e+00
1.361357e+00
1.413717e+00
1.413717e+00
1.413717e+00
1.413717e+00
1.466077e+00
1.466077e+00
1.466077e+00
1.466077e+00
1.518436e+00
1.518436e+00
1.518436e+00
1.518436e+00
1.570796e+00
1.570796e+00
</DataArray>
</PointData>
</Piece></UnstructuredGrid>
</VTKFile>
