<?xml version="1.0"?>
<VTKFile type="UnstructuredGrid" version="0.1" byte_order="LittleEndian" compressor="vtkZLibDataCompressor">
<UnstructuredGrid>
<Piece NumberOfPoints="120" NumberOfCells="30">
<Points>
<DataArray type="Float32" NumberOfComponents="3" format="ascii">
0.000000e+00 4.729842e-01 0.000000e+00
0.000000e+00 5.400000e-01 0.000000e+00
7.257126e-02 4.730254e-01 0.000000e+00
7.252714e-02 5.400000e-01 0.000000e+00
7.257126e-02 4.730254e-01 0.000000e+00
7.252714e-02 5.400000e-01 0.000000e+00
1.451353e-01 4.731013e-01 0.000000e+00
1.450460e-01 5.400000e-01 0.000000e+00
1.451353e-01 4.731013e-01 0.000000e+00
1.450460e-01 5.400000e-01 0.000000e+00
2.176813e-01 4.732275e-01 0.000000e+00
2.175478e-01 5.400000e-01 0.000000e+00
2.176813e-01 4.732275e-01 0.000000e+00
2.175478e-01 5.400000e-01 0.000000e+00
2.902003e-01 4.734039e-01 0.000000e+00
2.900235e-01 5.400000e-01 0.000000e+00
2.902003e-01 4.734039e-01 0.000000e+00
2.900235e-01 5.400000e-01 0.000000e+00
3.626828e-01 4.736296e-01 0.000000e+00
3.624639e-01 5.400000e-01 0.000000e+00
3.626828e-01 4.736296e-01 0.000000e+00
3.624639e-01 5.400000e-01 0.000000e+00
4.351185e-01 4.739038e-01 0.000000e+00
4.348597e-01 5.400000e-01 0.000000e+00
4.351185e-01 4.739038e-01 0.000000e+00
4.348597e-01 5.400000e-01 0.000000e+00
5.074966e-01 4.742255e-01 0.000000e+00
5.072010e-01 5.400000e-01 0.000000e+00
5.074966e-01 4.742255e-01 0.000000e+00
5.072010e-01 5.400000e-01 0.000000e+00
5.798050e-01 4.745937e-01 0.000000e+00
5.794777e-01 5.400000e-01 0.000000e+00
5.798050e-01 4.745937e-01 0.000000e+00
5.794777e-01 5.400000e-01 0.000000e+00
6.520303e-01 4.750071e-01 0.000000e+00
6.516797e-01 5.400000e-01 0.000000e+00
6.520303e-01 4.750071e-01 0.000000e+00
6.516797e-01 5.400000e-01 0.000000e+00
7.241572e-01 4.754643e-01 0.000000e+00
7.237976e-01 5.400000e-01 0.000000e+00
7.241572e-01 4.754643e-01 0.000000e+00
7.237976e-01 5.400000e-01 0.000000e+00
7.961675e-01 4.759637e-01 0.000000e+00
7.958240e-01 5.400000e-01 0.000000e+00
7.961675e-01 4.759637e-01 0.000000e+00
7.958240e-01 5.400000e-01 0.000000e+00
8.680387e-01 4.765036e-01 0.000000e+00
8.677555e-01 5.400000e-01 0.000000e+00
8.680387e-01 4.765036e-01 0.000000e+00
8.677555e-01 5.400000e-01 0.000000e+00
9.397412e-01 4.770823e-01 0.000000e+00
9.395974e-01 5.400000e-01 0.000000e+00
9.397412e-01 4.770823e-01 0.000000e+00
9.395974e-01 5.400000e-01 0.000000e+00
1.011233e+00 4.776973e-01 0.000000e+00
1.011372e+00 5.400000e-01 0.000000e+00
1.011233e+00 4.776973e-01 0.000000e+00
1.011372e+00 5.400000e-01 0.000000e+00
1.082452e+00 4.783452e-01 0.000000e+00
1.083133e+00 5.400000e-01 0.000000e+00
1.082452e+00 4.783452e-01 0.000000e+00
1.083133e+00 5.400000e-01 0.000000e+00
1.153296e+00 4.790209e-01 0.000000e+00
1.154993e+00 5.400000e-01 0.000000e+00
1.153296e+00 4.790209e-01 0.000000e+00
1.154993e+00 5.400000e-01 0.000000e+00
1.223584e+00 4.797186e-01 0.000000e+00
1.227169e+00 5.400000e-01 0.000000e+00
1.223584e+00 4.797186e-01 0.000000e+00
1.227169e+00 5.400000e-01 0.000000e+00
1.292972e+00 4.804358e-01 0.000000e+00
1.300035e+00 5.400000e-01 0.000000e+00
1.292972e+00 4.804358e-01 0.000000e+00
1.300035e+00 5.400000e-01 0.000000e+00
1.360796e+00 4.811298e-01 0.000000e+00
1.373935e+00 5.400000e-01 0.000000e+00
1.360796e+00 4.811298e-01 0.000000e+00
1.373935e+00 5.400000e-01 0.000000e+00
1.427069e+00 4.792878e-01 0.000000e+00
1.444828e+00 5.364806e-01 0.000000e+00
1.427069e+00 4.792878e-01 0.000000e+00
1.444828e+00 5.364806e-01 0.000000e+00
1.489983e+00 4.631301e-01 0.000000e+00
1.513556e+00 5.169584e-01 0.000000e+00
1.489983e+00 4.631301e-01 0.000000e+00
1.513556e+00 5.169584e-01 0.000000e+00
1.548005e+00 4.358560e-01 0.000000e+00
1.578175e+00 4.853073e-01 0.000000e+00
1.548005e+00 4.358560e-01 0.000000e+00
1.578175e+00 4.853073e-01 0.000000e+00
1.600245e+00 3.992102e-01 0.000000e+00
1.636643e+00 4.433761e-01 0.000000e+00
1.600245e+00 3.992102e-01 0.000000e+00
1.636643e+00 4.433761e-01 0.000000e+00
1.646128e+00 3.548858e-01 0.000000e+00
1.687896e+00 3.931469e-01 0.000000e+00
1.646128e+00 3.548858e-01 0.000000e+00
1.687896e+00 3.931469e-01 0.000000e+00
1.685279e+00 3.043670e-01 0.000000e+00
1.731418e+00 3.363792e-01 0.000000e+00
1.685279e+00 3.043670e-01 0.000000e+00
1.731418e+00 3.363792e-01 0.000000e+00
1.717473e+00 2.489622e-01 0.000000e+00
1.767011e+00 2.745750e-01 0.000000e+00
1.717473e+00 2.489622e-01 0.000000e+00
1.767011e+00 2.745750e-01 0.000000e+00
1.742583e+00 1.898287e-01 0.000000e+00
1.794633e+00 2.090053e-01 0.000000e+00
1.742583e+00 1.898287e-01 0.000000e+00
1.794633e+00 2.090053e-01 0.000000e+00
1.760546e+00 1.280027e-01 0.000000e+00
1.814313e+00 1.407599e-01 0.000000e+00
1.760546e+00 1.280027e-01 0.000000e+00
1.814313e+00 1.407599e-01 0.000000e+00
1.771330e+00 6.443062e-02 0.000000e+00
1.826096e+00 7.079892e-02 0.000000e+00
1.771330e+00 6.443062e-02 0.000000e+00
1.826096e+00 7.079892e-02 0.000000e+00
1.774926e+00 8.691080e-12 0.000000e+00
1.830020e+00 8.960850e-12 0.000000e+00
</DataArray>
</Points>
<Cells>
<DataArray type="Int32" Name="connectivity" format="ascii">
0 1 3 2
4 5 7 6
8 9 11 10
12 13 15 14
16 17 19 18
20 21 23 22
24 25 27 26
28 29 31 30
32 33 35 34
36 37 39 38
40 41 43 42
44 45 47 46
48 49 51 50
52 53 55 54
56 57 59 58
60 61 63 62
64 65 67 66
68 69 71 70
72 73 75 74
76 77 79 78
80 81 83 82
84 85 87 86
88 89 91 90
92 93 95 94
96 97 99 98
100 101 103 102
104 105 107 106
108 109 111 110
112 113 115 114
116 117 119 118
</DataArray>
<DataArray type="Int32" Name="offsets" format="ascii">
4
8
12
16
20
24
28
32
36
40
44
48
52
56
60
64
68
72
76
80
84
88
92
96
100
104
108
112
116
120
</DataArray>
<DataArray type="UInt8" Name="types" format="ascii">
9
9
9
9
9
9
9
9
9
9
9
9
9
9
9
9
9
9
9
9
9
9
9
9
9
9
9
9
9
9
</DataArray>
</Cells>
<PointData>
<DataArray type="Float32" Name="V1" format="ascii">
8.150728e+01
2.631527e-01
8.159460e+01
3.504698e-01
8.173889e+01
2.586110e-01
8.198744e+01
5.071597e-01
8.227896e+01
3.189608e-01
8.270004e+01
7.400395e-01
8.313895e+01
4.532764e-01
8.373683e+01
1.051151e+00
8.432792e+01
6.629679e-01
8.510960e+01
1.444648e+00
8.585902e+01
9.509599e-01
8.683398e+01
1.925920e+00
8.774928e+01
1.321549e+00
8.892972e+01
2.501998e+00
9.001965e+01
1.780747e+00
9.142095e+01
3.182040e+00
9.269498e+01
2.336895e+00
9.433621e+01
3.978125e+00
9.580346e+01
3.001760e+00
9.770834e+01
4.906646e+00
9.937532e+01
3.792485e+00
1.015735e+02
5.990705e+00
1.034396e+02
4.735152e+00
1.059689e+02
7.264472e+00
1.080174e+02
5.871401e+00
1.109272e+02
8.781140e+00
1.131081e+02
7.270984e+00
1.164649e+02
1.062776e+01
1.186613e+02
9.056265e+00
1.225582e+02
1.295313e+01
1.245234e+02
1.145171e+01
1.290915e+02
1.601973e+01
1.303342e+02
1.488976e+01
1.357439e+02
2.029949e+01
1.353351e+02
2.025200e+01
1.417377e+02
2.665465e+01
1.379060e+02
2.952711e+01
1.454238e+02
3.704492e+01
1.345898e+02
4.866985e+01
1.455034e+02
5.958346e+01
1.392395e+02
6.233161e+01
1.473512e+02
7.044332e+01
1.473263e+02
7.038779e+01
1.551484e+02
7.820988e+01
1.575641e+02
7.648311e+01
1.650034e+02
8.392240e+01
1.684650e+02
8.133935e+01
1.752960e+02
8.817035e+01
1.789982e+02
8.533727e+01
1.850090e+02
9.134805e+01
1.884939e+02
8.865395e+01
1.935359e+02
9.369598e+01
1.965334e+02
9.137347e+01
2.005151e+02
9.535512e+01
2.028644e+02
9.353681e+01
2.057337e+02
9.640614e+01
2.073414e+02
9.516434e+01
2.090712e+02
9.689417e+01
2.098862e+02
9.626564e+01
2.104640e+02
9.684344e+01
</DataArray>
<DataArray type="Float32" Name="V2" format="ascii">
4.729842e-01
5.400000e-01
4.761752e-01
5.430557e-01
4.761752e-01
5.430557e-01
4.856803e-01
5.522033e-01
4.856803e-01
5.522033e-01
5.014542e-01
5.673837e-01
5.014542e-01
5.673837e-01
5.233949e-01
5.884990e-01
5.233949e-01
5.884990e-01
5.513602e-01
6.154125e-01
5.513602e-01
6.154125e-01
5.851683e-01
6.479496e-01
5.851683e-01
6.479496e-01
6.245982e-01
6.858980e-01
6.245982e-01
6.858980e-01
6.693909e-01
7.290094e-01
6.693909e-01
7.290094e-01
7.192500e-01
7.769999e-01
7.192500e-01
7.769999e-01
7.738427e-01
8.295525e-01
7.738427e-01
8.295525e-01
8.328006e-01
8.863189e-01
8.328006e-01
8.863189e-01
8.957199e-01
9.469230e-01
8.957199e-01
9.469230e-01
9.621609e-01
1.010967e+00
9.621609e-01
1.010967e+00
1.031645e+00
1.078038e+00
1.031645e+00
1.078038e+00
1.103650e+00
1.147728e+00
1.103650e+00
1.147728e+00
1.177593e+00
1.219658e+00
1.177593e+00
1.219658e+00
1.252800e+00
1.293522e+00
1.252800e+00
1.293522e+00
1.328429e+00
1.369154e+00
1.328429e+00
1.369154e+00
1.403302e+00
1.446384e+00
1.403302e+00
1.446384e+00
1.475522e+00
1.519498e+00
1.475522e+00
1.519498e+00
1.537842e+00
1.583283e+00
1.537842e+00
1.583283e+00
1.591451e+00
1.639127e+00
1.591451e+00
1.639127e+00
1.637021e+00
1.686830e+00
1.637021e+00
1.686830e+00
1.675226e+00
1.726773e+00
1.675226e+00
1.726773e+00
1.706631e+00
1.759483e+00
1.706631e+00
1.759483e+00
1.731704e+00
1.785485e+00
1.731704e+00
1.785485e+00
1.750825e+00
1.805233e+00
1.750825e+00
1.805233e+00
1.764281e+00
1.819087e+00
1.764281e+00
1.819087e+00
1.772275e+00
1.827299e+00
1.772275e+00
1.827299e+00
1.774926e+00
1.830020e+00
</DataArray>
<DataArray type="Float32" Name="V3" format="ascii">
0.000000e+00
0.000000e+00
4.771557e-02
4.416633e-02
4.771557e-02
4.416633e-02
9.488764e-02
8.780606e-02
9.488764e-02
8.780606e-02
1.409722e-01
1.303948e-01
1.409722e-01
1.303948e-01
1.854325e-01
1.714134e-01
1.854325e-01
1.714134e-01
2.277403e-01
2.103510e-01
2.277403e-01
2.103510e-01
2.673780e-01
2.467070e-01
2.673780e-01
2.467070e-01
3.038416e-01
2.799942e-01
3.038416e-01
2.799942e-01
3.366435e-01
3.097414e-01
3.366435e-01
3.097414e-01
3.653145e-01
3.354960e-01
3.653145e-01
3.354960e-01
3.894064e-01
3.568271e-01
3.894064e-01
3.568271e-01
4.084939e-01
3.733291e-01
4.084939e-01
3.733291e-01
4.221762e-01
3.846249e-01
4.221762e-01
3.846249e-01
4.300784e-01
3.903713e-01
4.300784e-01
3.903713e-01
4.318509e-01
3.902653e-01
4.318509e-01
3.902653e-01
4.271681e-01
3.840530e-01
4.271681e-01
3.840530e-01
4.157235e-01
3.715430e-01
4.157235e-01
3.715430e-01
3.972150e-01
3.526235e-01
3.972150e-01
3.526235e-01
3.713091e-01
3.272720e-01
3.713091e-01
3.272720e-01
3.376334e-01
2.954164e-01
3.376334e-01
2.954164e-01
2.984590e-01
2.578083e-01
2.984590e-01
2.578083e-01
2.637864e-01
2.265269e-01
2.637864e-01
2.265269e-01
2.314560e-01
1.985512e-01
2.314560e-01
1.985512e-01
2.007816e-01
1.725932e-01
2.007816e-01
1.725932e-01
1.711650e-01
1.476837e-01
1.711650e-01
1.476837e-01
1.421864e-01
1.232067e-01
1.421864e-01
1.232067e-01
1.135609e-01
9.880727e-02
1.135609e-01
9.880727e-02
8.510847e-02
7.431027e-02
8.510847e-02
7.431027e-02
5.672561e-02
4.965848e-02
5.672561e-02
4.965848e-02
2.836195e-02
2.486861e-02
2.836195e-02
2.486861e-02
0.000000e+00
0.000000e+00
</DataArray>
<DataArray type="Float32" Name="V4" format="ascii">
8.500000e-01
1.000000e+00
8.500000e-01
1.000000e+00
8.500000e-01
1.000000e+00
8.500000e-01
1.000000e+00
8.500000e-01
1.000000e+00
8.500000e-01
1.000000e+00
8.500000e-01
1.000000e+00
8.500000e-01
1.000000e+00
8.500000e-01
1.000000e+00
8.500000e-01
1.000000e+00
8.500000e-01
1.000000e+00
8.500000e-01
1.000000e+00
8.500000e-01
1.000000e+00
8.500000e-01
1.000000e+00
8.500000e-01
1.000000e+00
8.500000e-01
1.000000e+00
8.500000e-01
1.000000e+00
8.500000e-01
1.000000e+00
8.500000e-01
1.000000e+00
8.500000e-01
1.000000e+00
8.500000e-01
1.000000e+00
8.500000e-01
1.000000e+00
8.500000e-01
1.000000e+00
8.500000e-01
1.000000e+00
8.500000e-01
1.000000e+00
8.500000e-01
1.000000e+00
8.500000e-01
1.000000e+00
8.500000e-01
1.000000e+00
8.500000e-01
1.000000e+00
8.500000e-01
1.000000e+00
8.500000e-01
1.000000e+00
8.500000e-01
1.000000e+00
8.500000e-01
1.000000e+00
8.500000e-01
1.000000e+00
8.500000e-01
1.000000e+00
8.500000e-01
1.000000e+00
8.500000e-01
1.000000e+00
8.500000e-01
1.000000e+00
8.500000e-01
1.000000e+00
8.500000e-01
1.000000e+00
8.500000e-01
1.000000e+00
8.500000e-01
1.000000e+00
8.500000e-01
1.000000e+00
8.500000e-01
1.000000e+00
8.500000e-01
1.000000e+00
8.500000e-01
1.000000e+00
8.500000e-01
1.000000e+00
8.500000e-01
1.000000e+00
8.500000e-01
1.000000e+00
8.500000e-01
1.000000e+00
8.500000e-01
1.000000e+00
8.500000e-01
1.000000e+00
8.500000e-01
1.000000e+00
8.500000e-01
1.000000e+00
8.500000e-01
1.000000e+00
8.500000e-01
1.000000e+00
8.500000e-01
1.000000e+00
8.500000e-01
1.000000e+00
8.500000e-01
1.000000e+00
8.500000e-01
1.000000e+00
</DataArray>
<DataArray type="Float32" Name="V5" format="ascii">
0.000000e+00
0.000000e+00
5.235988e-02
5.235988e-02
5.235988e-02
5.235988e-02
1.047198e-01
1.047198e-01
1.047198e-01
1.047198e-01
1.570796e-01
1.570796e-01
1.570796e-01
1.570796e-01
2.094395e-01
2.094395e-01
2.094395e-01
2.094395e-01
2.617994e-01
2.617994e-01
2.617994e-01
2.617994e-01
3.141593e-01
3.141593e-01
3.141593e-01
3.141593e-01
3.665191e-01
3.665191e-01
3.665191e-01
3.665191e-01
4.188790e-01
4.188790e-01
4.188790e-01
4.188790e-01
4.712389e-01
4.712389e-01
4.712389e-01
4.712389e-01
5.235988e-01
5.235988e-01
5.235988e-01
5.235988e-01
5.759587e-01
5.759587e-01
5.759587e-01
5.759587e-01
6.283185e-01
6.283185e-01
6.283185e-01
6.283185e-01
6.806784e-01
6.806784e-01
6.806784e-01
6.806784e-01
7.330383e-01
7.330383e-01
7.330383e-01
7.330383e-01
7.853982e-01
7.853982e-01
7.853982e-01
7.853982e-01
8.377580e-01
8.377580e-01
8.377580e-01
8.377580e-01
8.901179e-01
8.901179e-01
8.901179e-01
8.901179e-01
9.424778e-01
9.424778e-01
9.424778e-01
9.424778e-01
9.948377e-01
9.948377e-01
9.948377e-01
9.948377e-01
1.047198e+00
1.047198e+00
1.047198e+00
1.047198e+00
1.099557e+00
1.099557e+00
1.099557e+00
1.099557e+00
1.151917e+00
1.151917e+00
1.151917e+00
1.151917e+00
1.204277e+00
1.204277e+00
1.204277e+00
1.204277e+00
1.256637e+00
1.256637e+00
1.256637e+00
1.256637e+00
1.308997e+00
1.308997e+00
1.308997e+00
1.308997e+00
1.361357e+00
1.361357e+00
1.361357e+00
1.361357e+00
1.413717e+00
1.413717e+00
1.413717e+00
1.413717e+00
1.466077e+00
1.466077e+00
1.466077e+00
1.466077e+00
1.518436e+00
1.518436e+00
1.518436e+00
1.518436e+00
1.570796e+00
1.570796e+00
</DataArray>
</PointData>
</Piece></UnstructuredGrid>
</VTKFile>
