<?xml version="1.0"?>
<VTKFile type="UnstructuredGrid" version="0.1" byte_order="LittleEndian" compressor="vtkZLibDataCompressor">
<UnstructuredGrid>
<Piece NumberOfPoints="120" NumberOfCells="30">
<Points>
<DataArray type="Float32" NumberOfComponents="3" format="ascii">
0.000000e+00 4.971628e-01 0.000000e+00
0.000000e+00 5.700000e-01 0.000000e+00
6.961692e-02 4.972053e-01 0.000000e+00
6.956126e-02 5.700000e-01 0.000000e+00
6.961692e-02 4.972053e-01 0.000000e+00
6.956126e-02 5.700000e-01 0.000000e+00
1.392278e-01 4.972898e-01 0.000000e+00
1.391154e-01 5.700000e-01 0.000000e+00
1.392278e-01 4.972898e-01 0.000000e+00
1.391154e-01 5.700000e-01 0.000000e+00
2.088231e-01 4.974304e-01 0.000000e+00
2.086553e-01 5.700000e-01 0.000000e+00
2.088231e-01 4.974304e-01 0.000000e+00
2.086553e-01 5.700000e-01 0.000000e+00
2.783953e-01 4.976267e-01 0.000000e+00
2.781732e-01 5.700000e-01 0.000000e+00
2.783953e-01 4.976267e-01 0.000000e+00
2.781732e-01 5.700000e-01 0.000000e+00
3.479359e-01 4.978779e-01 0.000000e+00
3.476614e-01 5.700000e-01 0.000000e+00
3.479359e-01 4.978779e-01 0.000000e+00
3.476614e-01 5.700000e-01 0.000000e+00
4.174358e-01 4.981830e-01 0.000000e+00
4.171122e-01 5.700000e-01 0.000000e+00
4.174358e-01 4.981830e-01 0.000000e+00
4.171122e-01 5.700000e-01 0.000000e+00
4.868852e-01 4.985410e-01 0.000000e+00
4.865172e-01 5.700000e-01 0.000000e+00
4.868852e-01 4.985410e-01 0.000000e+00
4.865172e-01 5.700000e-01 0.000000e+00
5.562727e-01 4.989505e-01 0.000000e+00
5.558686e-01 5.700000e-01 0.000000e+00
5.562727e-01 4.989505e-01 0.000000e+00
5.558686e-01 5.700000e-01 0.000000e+00
6.255853e-01 4.994102e-01 0.000000e+00
6.251590e-01 5.700000e-01 0.000000e+00
6.255853e-01 4.994102e-01 0.000000e+00
6.251590e-01 5.700000e-01 0.000000e+00
6.948073e-01 4.999187e-01 0.000000e+00
6.943832e-01 5.700000e-01 0.000000e+00
6.948073e-01 4.999187e-01 0.000000e+00
6.943832e-01 5.700000e-01 0.000000e+00
7.639188e-01 5.004747e-01 0.000000e+00
7.635403e-01 5.700000e-01 0.000000e+00
7.639188e-01 5.004747e-01 0.000000e+00
7.635403e-01 5.700000e-01 0.000000e+00
8.328930e-01 5.010767e-01 0.000000e+00
8.326381e-01 5.700000e-01 0.000000e+00
8.328930e-01 5.010767e-01 0.000000e+00
8.326381e-01 5.700000e-01 0.000000e+00
9.016913e-01 5.017236e-01 0.000000e+00
9.017018e-01 5.700000e-01 0.000000e+00
9.016913e-01 5.017236e-01 0.000000e+00
9.017018e-01 5.700000e-01 0.000000e+00
9.702537e-01 5.024141e-01 0.000000e+00
9.707886e-01 5.700000e-01 0.000000e+00
9.702537e-01 5.024141e-01 0.000000e+00
9.707886e-01 5.700000e-01 0.000000e+00
1.038481e+00 5.031460e-01 0.000000e+00
1.040015e+00 5.700000e-01 0.000000e+00
1.038481e+00 5.031460e-01 0.000000e+00
1.040015e+00 5.700000e-01 0.000000e+00
1.106194e+00 5.039143e-01 0.000000e+00
1.109597e+00 5.700000e-01 0.000000e+00
1.106194e+00 5.039143e-01 0.000000e+00
1.109597e+00 5.700000e-01 0.000000e+00
1.173050e+00 5.046980e-01 0.000000e+00
1.179896e+00 5.700000e-01 0.000000e+00
1.173050e+00 5.046980e-01 0.000000e+00
1.179896e+00 5.700000e-01 0.000000e+00
1.238393e+00 5.053676e-01 0.000000e+00
1.251186e+00 5.700000e-01 0.000000e+00
1.238393e+00 5.053676e-01 0.000000e+00
1.251186e+00 5.700000e-01 0.000000e+00
1.302258e+00 5.039153e-01 0.000000e+00
1.320201e+00 5.672551e-01 0.000000e+00
1.302258e+00 5.039153e-01 0.000000e+00
1.320201e+00 5.672551e-01 0.000000e+00
1.363281e+00 4.904197e-01 0.000000e+00
1.387183e+00 5.504475e-01 0.000000e+00
1.363281e+00 4.904197e-01 0.000000e+00
1.387183e+00 5.504475e-01 0.000000e+00
1.420122e+00 4.666348e-01 0.000000e+00
1.450967e+00 5.223615e-01 0.000000e+00
1.420122e+00 4.666348e-01 0.000000e+00
1.450967e+00 5.223615e-01 0.000000e+00
1.472062e+00 4.340160e-01 0.000000e+00
1.509602e+00 4.845219e-01 0.000000e+00
1.472062e+00 4.340160e-01 0.000000e+00
1.509602e+00 4.845219e-01 0.000000e+00
1.518567e+00 3.940161e-01 0.000000e+00
1.561998e+00 4.386509e-01 0.000000e+00
1.518567e+00 3.940161e-01 0.000000e+00
1.561998e+00 4.386509e-01 0.000000e+00
1.559263e+00 3.479248e-01 0.000000e+00
1.607602e+00 3.863135e-01 0.000000e+00
1.559263e+00 3.479248e-01 0.000000e+00
1.607602e+00 3.863135e-01 0.000000e+00
1.593910e+00 2.968916e-01 0.000000e+00
1.646183e+00 3.288629e-01 0.000000e+00
1.593910e+00 2.968916e-01 0.000000e+00
1.646183e+00 3.288629e-01 0.000000e+00
1.622363e+00 2.419377e-01 0.000000e+00
1.677677e+00 2.674473e-01 0.000000e+00
1.622363e+00 2.419377e-01 0.000000e+00
1.677677e+00 2.674473e-01 0.000000e+00
1.644540e+00 1.839753e-01 0.000000e+00
1.702099e+00 2.030453e-01 0.000000e+00
1.644540e+00 1.839753e-01 0.000000e+00
1.702099e+00 2.030453e-01 0.000000e+00
1.660398e+00 1.238304e-01 0.000000e+00
1.719495e+00 1.365066e-01 0.000000e+00
1.660398e+00 1.238304e-01 0.000000e+00
1.719495e+00 1.365066e-01 0.000000e+00
1.669919e+00 6.226516e-02 0.000000e+00
1.729911e+00 6.859073e-02 0.000000e+00
1.669919e+00 6.226516e-02 0.000000e+00
1.729911e+00 6.859073e-02 0.000000e+00
1.673093e+00 8.192450e-12 0.000000e+00
1.733379e+00 8.487640e-12 0.000000e+00
</DataArray>
</Points>
<Cells>
<DataArray type="Int32" Name="connectivity" format="ascii">
0 1 3 2
4 5 7 6
8 9 11 10
12 13 15 14
16 17 19 18
20 21 23 22
24 25 27 26
28 29 31 30
32 33 35 34
36 37 39 38
40 41 43 42
44 45 47 46
48 49 51 50
52 53 55 54
56 57 59 58
60 61 63 62
64 65 67 66
68 69 71 70
72 73 75 74
76 77 79 78
80 81 83 82
84 85 87 86
88 89 91 90
92 93 95 94
96 97 99 98
100 101 103 102
104 105 107 106
108 109 111 110
112 113 115 114
116 117 119 118
</DataArray>
<DataArray type="Int32" Name="offsets" format="ascii">
4
8
12
16
20
24
28
32
36
40
44
48
52
56
60
64
68
72
76
80
84
88
92
96
100
104
108
112
116
120
</DataArray>
<DataArray type="UInt8" Name="types" format="ascii">
9
9
9
9
9
9
9
9
9
9
9
9
9
9
9
9
9
9
9
9
9
9
9
9
9
9
9
9
9
9
</DataArray>
</Cells>
<PointData>
<DataArray type="Float32" Name="V1" format="ascii">
5.828062e+01
-3.572465e-01
5.834563e+01
-2.922300e-01
5.845321e+01
-3.608735e-01
5.863659e+01
-1.774869e-01
5.885445e+01
-3.182406e-01
5.916533e+01
-7.364103e-03
5.949309e+01
-2.219389e-01
5.993466e+01
2.196367e-01
6.037584e+01
-7.088164e-02
6.095327e+01
5.065459e-01
6.151231e+01
1.371586e-01
6.223260e+01
8.574441e-01
6.291474e+01
4.055654e-01
6.378696e+01
1.277790e+00
6.459789e+01
7.392755e-01
6.563356e+01
1.774942e+00
6.657862e+01
1.145538e+00
6.779218e+01
2.359093e+00
6.887475e+01
1.635273e+00
7.028441e+01
3.044931e+00
7.150260e+01
2.225622e+00
7.313167e+01
3.854691e+00
7.447184e+01
2.944736e+00
7.635092e+01
4.823818e+00
7.777501e+01
3.840941e+00
7.994572e+01
6.011646e+00
8.136675e+01
5.000718e+00
8.388776e+01
7.521726e+00
8.512321e+01
6.584855e+00
8.807876e+01
9.540407e+00
8.876467e+01
8.904651e+00
9.227007e+01
1.241006e+01
9.171103e+01
1.259082e+01
9.589709e+01
1.677688e+01
9.274991e+01
1.907066e+01
9.783468e+01
2.415543e+01
8.962726e+01
3.252545e+01
9.700513e+01
3.990331e+01
9.147466e+01
4.315636e+01
9.683577e+01
4.851747e+01
9.598252e+01
4.902387e+01
1.011113e+02
5.415267e+01
1.022654e+02
5.331606e+01
1.071860e+02
5.823666e+01
1.092662e+02
5.665833e+01
1.138487e+02
6.124084e+01
1.162499e+02
5.937464e+01
1.203634e+02
6.348813e+01
1.227443e+02
6.162398e+01
1.262986e+02
6.517822e+01
1.284580e+02
6.348873e+01
1.313997e+02
6.643036e+01
1.332179e+02
6.501343e+01
1.355189e+02
6.731445e+01
1.369255e+02
6.622325e+01
1.385731e+02
6.787082e+01
1.395281e+02
6.713284e+01
1.405174e+02
6.812217e+01
1.409995e+02
6.775059e+01
1.413293e+02
6.808042e+01
</DataArray>
<DataArray type="Float32" Name="V2" format="ascii">
4.971628e-01
5.700000e-01
5.001674e-01
5.728594e-01
5.001674e-01
5.728594e-01
5.091188e-01
5.814190e-01
5.091188e-01
5.814190e-01
5.239734e-01
5.956232e-01
5.239734e-01
5.956232e-01
5.446340e-01
6.153796e-01
5.446340e-01
6.153796e-01
5.709656e-01
6.405591e-01
5.709656e-01
6.405591e-01
6.027950e-01
6.709970e-01
6.027950e-01
6.709970e-01
6.399121e-01
7.064930e-01
6.399121e-01
7.064930e-01
6.820704e-01
7.468130e-01
6.820704e-01
7.468130e-01
7.289875e-01
7.916900e-01
7.289875e-01
7.916900e-01
7.803460e-01
8.408261e-01
7.803460e-01
8.408261e-01
8.357934e-01
8.938961e-01
8.357934e-01
8.938961e-01
8.949418e-01
9.505521e-01
8.949418e-01
9.505521e-01
9.573652e-01
1.010433e+00
9.573652e-01
1.010433e+00
1.022593e+00
1.073177e+00
1.022593e+00
1.073177e+00
1.090095e+00
1.138452e+00
1.090095e+00
1.138452e+00
1.159247e+00
1.205996e+00
1.159247e+00
1.205996e+00
1.229248e+00
1.275664e+00
1.229248e+00
1.275664e+00
1.298929e+00
1.347269e+00
1.298929e+00
1.347269e+00
1.366617e+00
1.416163e+00
1.366617e+00
1.416163e+00
1.425846e+00
1.476559e+00
1.425846e+00
1.476559e+00
1.477186e+00
1.529968e+00
1.477186e+00
1.529968e+00
1.521326e+00
1.576163e+00
1.521326e+00
1.576163e+00
1.558907e+00
1.615449e+00
1.558907e+00
1.615449e+00
1.590461e+00
1.648298e+00
1.590461e+00
1.648298e+00
1.616440e+00
1.675207e+00
1.616440e+00
1.675207e+00
1.637212e+00
1.696621e+00
1.637212e+00
1.696621e+00
1.653073e+00
1.712906e+00
1.653073e+00
1.712906e+00
1.664246e+00
1.724344e+00
1.664246e+00
1.724344e+00
1.670889e+00
1.731130e+00
1.670889e+00
1.731130e+00
1.673093e+00
1.733379e+00
</DataArray>
<DataArray type="Float32" Name="V3" format="ascii">
0.000000e+00
0.000000e+00
4.349980e-02
3.963443e-02
4.349980e-02
3.963443e-02
8.648411e-02
7.877210e-02
8.648411e-02
7.877210e-02
1.284369e-01
1.169187e-01
1.284369e-01
1.169187e-01
1.688493e-01
1.535847e-01
1.688493e-01
1.535847e-01
2.072200e-01
1.882883e-01
2.072200e-01
1.882883e-01
2.430581e-01
2.205575e-01
2.430581e-01
2.205575e-01
2.758854e-01
2.499332e-01
2.758854e-01
2.499332e-01
3.052389e-01
2.759713e-01
3.052389e-01
2.759713e-01
3.306731e-01
2.982462e-01
3.306731e-01
2.982462e-01
3.517614e-01
3.163535e-01
3.517614e-01
3.163535e-01
3.680982e-01
3.299145e-01
3.680982e-01
3.299145e-01
3.792991e-01
3.385808e-01
3.792991e-01
3.385808e-01
3.850008e-01
3.420413e-01
3.850008e-01
3.420413e-01
3.848584e-01
3.400321e-01
3.848584e-01
3.400321e-01
3.785389e-01
3.323505e-01
3.785389e-01
3.323505e-01
3.657073e-01
3.188728e-01
3.657073e-01
3.188728e-01
3.460000e-01
2.995596e-01
3.460000e-01
2.995596e-01
3.190582e-01
2.742892e-01
3.190582e-01
2.742892e-01
2.866416e-01
2.432928e-01
2.866416e-01
2.432928e-01
2.569246e-01
2.168899e-01
2.569246e-01
2.168899e-01
2.289474e-01
1.932976e-01
2.289474e-01
1.932976e-01
2.022484e-01
1.713775e-01
2.022484e-01
1.713775e-01
1.763599e-01
1.502540e-01
1.763599e-01
1.502540e-01
1.509425e-01
1.293705e-01
1.509425e-01
1.293705e-01
1.257589e-01
1.084064e-01
1.257589e-01
1.084064e-01
1.006574e-01
8.720562e-02
1.006574e-01
8.720562e-02
7.555239e-02
6.572145e-02
7.555239e-02
6.572145e-02
5.040680e-02
4.397732e-02
5.040680e-02
4.397732e-02
2.521695e-02
2.203979e-02
2.521695e-02
2.203979e-02
0.000000e+00
0.000000e+00
</DataArray>
<DataArray type="Float32" Name="V4" format="ascii">
8.500000e-01
1.000000e+00
8.500000e-01
1.000000e+00
8.500000e-01
1.000000e+00
8.500000e-01
1.000000e+00
8.500000e-01
1.000000e+00
8.500000e-01
1.000000e+00
8.500000e-01
1.000000e+00
8.500000e-01
1.000000e+00
8.500000e-01
1.000000e+00
8.500000e-01
1.000000e+00
8.500000e-01
1.000000e+00
8.500000e-01
1.000000e+00
8.500000e-01
1.000000e+00
8.500000e-01
1.000000e+00
8.500000e-01
1.000000e+00
8.500000e-01
1.000000e+00
8.500000e-01
1.000000e+00
8.500000e-01
1.000000e+00
8.500000e-01
1.000000e+00
8.500000e-01
1.000000e+00
8.500000e-01
1.000000e+00
8.500000e-01
1.000000e+00
8.500000e-01
1.000000e+00
8.500000e-01
1.000000e+00
8.500000e-01
1.000000e+00
8.500000e-01
1.000000e+00
8.500000e-01
1.000000e+00
8.500000e-01
1.000000e+00
8.500000e-01
1.000000e+00
8.500000e-01
1.000000e+00
8.500000e-01
1.000000e+00
8.500000e-01
1.000000e+00
8.500000e-01
1.000000e+00
8.500000e-01
1.000000e+00
8.500000e-01
1.000000e+00
8.500000e-01
1.000000e+00
8.500000e-01
1.000000e+00
8.500000e-01
1.000000e+00
8.500000e-01
1.000000e+00
8.500000e-01
1.000000e+00
8.500000e-01
1.000000e+00
8.500000e-01
1.000000e+00
8.500000e-01
1.000000e+00
8.500000e-01
1.000000e+00
8.500000e-01
1.000000e+00
8.500000e-01
1.000000e+00
8.500000e-01
1.000000e+00
8.500000e-01
1.000000e+00
8.500000e-01
1.000000e+00
8.500000e-01
1.000000e+00
8.500000e-01
1.000000e+00
8.500000e-01
1.000000e+00
8.500000e-01
1.000000e+00
8.500000e-01
1.000000e+00
8.500000e-01
1.000000e+00
8.500000e-01
1.000000e+00
8.500000e-01
1.000000e+00
8.500000e-01
1.000000e+00
8.500000e-01
1.000000e+00
8.500000e-01
1.000000e+00
</DataArray>
<DataArray type="Float32" Name="V5" format="ascii">
0.000000e+00
0.000000e+00
5.235988e-02
5.235988e-02
5.235988e-02
5.235988e-02
1.047198e-01
1.047198e-01
1.047198e-01
1.047198e-01
1.570796e-01
1.570796e-01
1.570796e-01
1.570796e-01
2.094395e-01
2.094395e-01
2.094395e-01
2.094395e-01
2.617994e-01
2.617994e-01
2.617994e-01
2.617994e-01
3.141593e-01
3.141593e-01
3.141593e-01
3.141593e-01
3.665191e-01
3.665191e-01
3.665191e-01
3.665191e-01
4.188790e-01
4.188790e-01
4.188790e-01
4.188790e-01
4.712389e-01
4.712389e-01
4.712389e-01
4.712389e-01
5.235988e-01
5.235988e-01
5.235988e-01
5.235988e-01
5.759587e-01
5.759587e-01
5.759587e-01
5.759587e-01
6.283185e-01
6.283185e-01
6.283185e-01
6.283185e-01
6.806784e-01
6.806784e-01
6.806784e-01
6.806784e-01
7.330383e-01
7.330383e-01
7.330383e-01
7.330383e-01
7.853982e-01
7.853982e-01
7.853982e-01
7.853982e-01
8.377580e-01
8.377580e-01
8.377580e-01
8.377580e-01
8.901179e-01
8.901179e-01
8.901179e-01
8.901179e-01
9.424778e-01
9.424778e-01
9.424778e-01
9.424778e-01
9.948377e-01
9.948377e-01
9.948377e-01
9.948377e-01
1.047198e+00
1.047198e+00
1.047198e+00
1.047198e+00
1.099557e+00
1.099557e+00
1.099557e+00
1.099557e+00
1.151917e+00
1.151917e+00
1.151917e+00
1.151917e+00
1.204277e+00
1.204277e+00
1.204277e+00
1.204277e+00
1.256637e+00
1.256637e+00
1.256637e+00
1.256637e+00
1.308997e+00
1.308997e+00
1.308997e+00
1.308997e+00
1.361357e+00
1.361357e+00
1.361357e+00
1.361357e+00
1.413717e+00
1.413717e+00
1.413717e+00
1.413717e+00
1.466077e+00
1.466077e+00
1.466077e+00
1.466077e+00
1.518436e+00
1.518436e+00
1.518436e+00
1.518436e+00
1.570796e+00
1.570796e+00
</DataArray>
</PointData>
</Piece></UnstructuredGrid>
</VTKFile>
