<?xml version="1.0"?>
<VTKFile type="UnstructuredGrid" version="0.1" byte_order="LittleEndian" compressor="vtkZLibDataCompressor">
<UnstructuredGrid>
<Piece NumberOfPoints="120" NumberOfCells="30">
<Points>
<DataArray type="Float32" NumberOfComponents="3" format="ascii">
0.000000e+00 8.225042e-01 0.000000e+00
0.000000e+00 9.300000e-01 0.000000e+00
5.732391e-02 8.225724e-01 0.000000e+00
5.727141e-02 9.300000e-01 0.000000e+00
5.732391e-02 8.225724e-01 0.000000e+00
5.727141e-02 9.300000e-01 0.000000e+00
1.146350e-01 8.227571e-01 0.000000e+00
1.145772e-01 9.300000e-01 0.000000e+00
1.146350e-01 8.227571e-01 0.000000e+00
1.145772e-01 9.300000e-01 0.000000e+00
1.719071e-01 8.230767e-01 0.000000e+00
1.719708e-01 9.300000e-01 0.000000e+00
1.719071e-01 8.230767e-01 0.000000e+00
1.719708e-01 9.300000e-01 0.000000e+00
2.290861e-01 8.235447e-01 0.000000e+00
2.295436e-01 9.300000e-01 0.000000e+00
2.290861e-01 8.235447e-01 0.000000e+00
2.295436e-01 9.300000e-01 0.000000e+00
2.860574e-01 8.241646e-01 0.000000e+00
2.874484e-01 9.300000e-01 0.000000e+00
2.860574e-01 8.241646e-01 0.000000e+00
2.874484e-01 9.300000e-01 0.000000e+00
3.425907e-01 8.248821e-01 0.000000e+00
3.459065e-01 9.300000e-01 0.000000e+00
3.425907e-01 8.248821e-01 0.000000e+00
3.459065e-01 9.300000e-01 0.000000e+00
3.982602e-01 8.254303e-01 0.000000e+00
4.051329e-01 9.300000e-01 0.000000e+00
3.982602e-01 8.254303e-01 0.000000e+00
4.051329e-01 9.300000e-01 0.000000e+00
4.525703e-01 8.251570e-01 0.000000e+00
4.649120e-01 9.300000e-01 0.000000e+00
4.525703e-01 8.251570e-01 0.000000e+00
4.649120e-01 9.300000e-01 0.000000e+00
5.061330e-01 8.222891e-01 0.000000e+00
5.239705e-01 9.270600e-01 0.000000e+00
5.061330e-01 8.222891e-01 0.000000e+00
5.239705e-01 9.270600e-01 0.000000e+00
5.579350e-01 8.142525e-01 0.000000e+00
5.827344e-01 9.165723e-01 0.000000e+00
5.579350e-01 8.142525e-01 0.000000e+00
5.827344e-01 9.165723e-01 0.000000e+00
6.083299e-01 8.014785e-01 0.000000e+00
6.408866e-01 9.006637e-01 0.000000e+00
6.083299e-01 8.014785e-01 0.000000e+00
6.408866e-01 9.006637e-01 0.000000e+00
6.573254e-01 7.839805e-01 0.000000e+00
6.975671e-01 8.794627e-01 0.000000e+00
6.573254e-01 7.839805e-01 0.000000e+00
6.975671e-01 8.794627e-01 0.000000e+00
7.047574e-01 7.621270e-01 0.000000e+00
7.522607e-01 8.534387e-01 0.000000e+00
7.047574e-01 7.621270e-01 0.000000e+00
7.522607e-01 8.534387e-01 0.000000e+00
7.504251e-01 7.362473e-01 0.000000e+00
8.046206e-01 8.230411e-01 0.000000e+00
7.504251e-01 7.362473e-01 0.000000e+00
8.046206e-01 8.230411e-01 0.000000e+00
7.941331e-01 7.066735e-01 0.000000e+00
8.544199e-01 7.886966e-01 0.000000e+00
7.941331e-01 7.066735e-01 0.000000e+00
8.544199e-01 7.886966e-01 0.000000e+00
8.357031e-01 6.737220e-01 0.000000e+00
9.014988e-01 7.507900e-01 0.000000e+00
8.357031e-01 6.737220e-01 0.000000e+00
9.014988e-01 7.507900e-01 0.000000e+00
8.749774e-01 6.376919e-01 0.000000e+00
9.457378e-01 7.096668e-01 0.000000e+00
8.749774e-01 6.376919e-01 0.000000e+00
9.457378e-01 7.096668e-01 0.000000e+00
9.118178e-01 5.988641e-01 0.000000e+00
9.870411e-01 6.656382e-01 0.000000e+00
9.118178e-01 5.988641e-01 0.000000e+00
9.870411e-01 6.656382e-01 0.000000e+00
9.461038e-01 5.575021e-01 0.000000e+00
1.025327e+00 6.189880e-01 0.000000e+00
9.461038e-01 5.575021e-01 0.000000e+00
1.025327e+00 6.189880e-01 0.000000e+00
9.777299e-01 5.138551e-01 0.000000e+00
1.060525e+00 5.699784e-01 0.000000e+00
9.777299e-01 5.138551e-01 0.000000e+00
1.060525e+00 5.699784e-01 0.000000e+00
1.006604e+00 4.681592e-01 0.000000e+00
1.092570e+00 5.188553e-01 0.000000e+00
1.006604e+00 4.681592e-01 0.000000e+00
1.092570e+00 5.188553e-01 0.000000e+00
1.032645e+00 4.206409e-01 0.000000e+00
1.121405e+00 4.658524e-01 0.000000e+00
1.032645e+00 4.206409e-01 0.000000e+00
1.121405e+00 4.658524e-01 0.000000e+00
1.055782e+00 3.715180e-01 0.000000e+00
1.146975e+00 4.111938e-01 0.000000e+00
1.055782e+00 3.715180e-01 0.000000e+00
1.146975e+00 4.111938e-01 0.000000e+00
1.075954e+00 3.210022e-01 0.000000e+00
1.169235e+00 3.550970e-01 0.000000e+00
1.075954e+00 3.210022e-01 0.000000e+00
1.169235e+00 3.550970e-01 0.000000e+00
1.093110e+00 2.692999e-01 0.000000e+00
1.188142e+00 2.977743e-01 0.000000e+00
1.093110e+00 2.692999e-01 0.000000e+00
1.188142e+00 2.977743e-01 0.000000e+00
1.107206e+00 2.166139e-01 0.000000e+00
1.203661e+00 2.394345e-01 0.000000e+00
1.107206e+00 2.166139e-01 0.000000e+00
1.203661e+00 2.394345e-01 0.000000e+00
1.118206e+00 1.631439e-01 0.000000e+00
1.215763e+00 1.802835e-01 0.000000e+00
1.118206e+00 1.631439e-01 0.000000e+00
1.215763e+00 1.802835e-01 0.000000e+00
1.126082e+00 1.090876e-01 0.000000e+00
1.224424e+00 1.205256e-01 0.000000e+00
1.126082e+00 1.090876e-01 0.000000e+00
1.224424e+00 1.205256e-01 0.000000e+00
1.130816e+00 5.464122e-02 0.000000e+00
1.229627e+00 6.036371e-02 0.000000e+00
1.130816e+00 5.464122e-02 0.000000e+00
1.229627e+00 6.036371e-02 0.000000e+00
1.132395e+00 5.544870e-12 0.000000e+00
1.231362e+00 6.029470e-12 0.000000e+00
</DataArray>
</Points>
<Cells>
<DataArray type="Int32" Name="connectivity" format="ascii">
0 1 3 2
4 5 7 6
8 9 11 10
12 13 15 14
16 17 19 18
20 21 23 22
24 25 27 26
28 29 31 30
32 33 35 34
36 37 39 38
40 41 43 42
44 45 47 46
48 49 51 50
52 53 55 54
56 57 59 58
60 61 63 62
64 65 67 66
68 69 71 70
72 73 75 74
76 77 79 78
80 81 83 82
84 85 87 86
88 89 91 90
92 93 95 94
96 97 99 98
100 101 103 102
104 105 107 106
108 109 111 110
112 113 115 114
116 117 119 118
</DataArray>
<DataArray type="Int32" Name="offsets" format="ascii">
4
8
12
16
20
24
28
32
36
40
44
48
52
56
60
64
68
72
76
80
84
88
92
96
100
104
108
112
116
120
</DataArray>
<DataArray type="UInt8" Name="types" format="ascii">
9
9
9
9
9
9
9
9
9
9
9
9
9
9
9
9
9
9
9
9
9
9
9
9
9
9
9
9
9
9
</DataArray>
</Cells>
<PointData>
<DataArray type="Float32" Name="V1" format="ascii">
1.376012e+01
-1.009597e-01
1.377962e+01
-8.145471e-02
1.378940e+01
-8.971832e-02
1.383931e+01
-3.980823e-02
1.385075e+01
-4.921326e-02
1.393470e+01
3.473365e-02
1.391986e+01
4.179779e-02
1.404017e+01
1.621117e-01
1.394144e+01
2.257419e-01
1.410736e+01
3.916592e-01
1.381006e+01
5.952957e-01
1.405012e+01
8.353493e-01
1.334595e+01
1.339403e+00
1.374773e+01
1.741183e+00
1.227089e+01
2.881505e+00
1.305259e+01
3.663207e+00
1.074468e+01
5.897455e+00
1.167194e+01
6.824717e+00
1.040662e+01
7.620489e+00
1.075646e+01
7.970321e+00
1.031365e+01
8.339316e+00
1.065534e+01
8.681009e+00
1.047975e+01
8.831276e+00
1.080543e+01
9.156963e+00
1.079160e+01
9.171010e+00
1.109374e+01
9.473152e+00
1.116002e+01
9.418482e+00
1.143417e+01
9.692632e+00
1.153909e+01
9.605605e+00
1.178445e+01
9.850964e+00
1.190395e+01
9.752331e+00
1.212153e+01
9.969913e+00
1.224241e+01
9.870851e+00
1.243414e+01
1.006258e+01
1.254935e+01
9.968846e+00
1.271748e+01
1.013697e+01
1.282356e+01
1.005126e+01
1.297034e+01
1.019804e+01
1.306582e+01
1.012135e+01
1.319337e+01
1.024890e+01
1.327792e+01
1.018135e+01
1.338815e+01
1.029157e+01
1.346200e+01
1.023284e+01
1.355657e+01
1.032741e+01
1.362024e+01
1.027697e+01
1.370059e+01
1.035732e+01
1.375468e+01
1.031460e+01
1.382204e+01
1.038196e+01
1.386717e+01
1.034642e+01
1.392255e+01
1.040179e+01
1.395927e+01
1.037294e+01
1.400350e+01
1.041717e+01
1.403229e+01
1.039458e+01
1.406604e+01
1.042832e+01
1.408729e+01
1.041166e+01
1.411104e+01
1.043542e+01
1.412505e+01
1.042445e+01
1.413917e+01
1.043857e+01
1.414612e+01
1.043312e+01
1.415080e+01
1.043780e+01
</DataArray>
<DataArray type="Float32" Name="V2" format="ascii">
8.225042e-01
9.300000e-01
8.244452e-01
9.317228e-01
8.244452e-01
9.317228e-01
8.302326e-01
9.368819e-01
8.302326e-01
9.368819e-01
8.398354e-01
9.454523e-01
8.398354e-01
9.454523e-01
8.531780e-01
9.574021e-01
8.531780e-01
9.574021e-01
8.701190e-01
9.727081e-01
8.701190e-01
9.727081e-01
8.903759e-01
9.913736e-01
8.903759e-01
9.913736e-01
9.133293e-01
1.013416e+00
9.133293e-01
1.013416e+00
9.378954e-01
1.038694e+00
9.378954e-01
1.038694e+00
9.624445e-01
1.063894e+00
9.624445e-01
1.063894e+00
9.841308e-01
1.085142e+00
9.841308e-01
1.085142e+00
1.003497e+00
1.104412e+00
1.003497e+00
1.104412e+00
1.020620e+00
1.121520e+00
1.020620e+00
1.121520e+00
1.035802e+00
1.136659e+00
1.035802e+00
1.136659e+00
1.049271e+00
1.150035e+00
1.049271e+00
1.150035e+00
1.061231e+00
1.161859e+00
1.061231e+00
1.161859e+00
1.071856e+00
1.172321e+00
1.071856e+00
1.172321e+00
1.081298e+00
1.181584e+00
1.081298e+00
1.181584e+00
1.089680e+00
1.189785e+00
1.089680e+00
1.189785e+00
1.097107e+00
1.197037e+00
1.097107e+00
1.197037e+00
1.103666e+00
1.203431e+00
1.103666e+00
1.203431e+00
1.109430e+00
1.209043e+00
1.109430e+00
1.209043e+00
1.114458e+00
1.213933e+00
1.114458e+00
1.213933e+00
1.118797e+00
1.218152e+00
1.118797e+00
1.218152e+00
1.122489e+00
1.221739e+00
1.122489e+00
1.221739e+00
1.125564e+00
1.224727e+00
1.125564e+00
1.224727e+00
1.128048e+00
1.227140e+00
1.128048e+00
1.227140e+00
1.129960e+00
1.228997e+00
1.129960e+00
1.228997e+00
1.131316e+00
1.230314e+00
1.131316e+00
1.230314e+00
1.132126e+00
1.231101e+00
1.132126e+00
1.231101e+00
1.132395e+00
1.231362e+00
</DataArray>
<DataArray type="Float32" Name="V3" format="ascii">
0.000000e+00
0.000000e+00
1.419524e-02
8.520484e-03
1.419524e-02
8.520484e-03
2.800548e-02
1.673804e-02
2.800548e-02
1.673804e-02
4.103303e-02
2.436955e-02
4.103303e-02
2.436955e-02
5.285545e-02
3.116961e-02
5.285545e-02
3.116961e-02
6.300076e-02
3.695214e-02
6.300076e-02
3.695214e-02
7.092053e-02
4.159087e-02
7.092053e-02
4.159087e-02
7.600014e-02
4.494198e-02
7.600014e-02
4.494198e-02
7.782198e-02
4.645316e-02
7.782198e-02
4.645316e-02
7.765637e-02
4.598465e-02
7.765637e-02
4.598465e-02
7.605962e-02
4.637660e-02
7.605962e-02
4.637660e-02
7.367191e-02
4.695616e-02
7.367191e-02
4.695616e-02
7.097521e-02
4.740842e-02
7.097521e-02
4.740842e-02
6.807735e-02
4.752998e-02
6.807735e-02
4.752998e-02
6.502890e-02
4.722765e-02
6.502890e-02
4.722765e-02
6.184331e-02
4.647340e-02
6.184331e-02
4.647340e-02
5.852152e-02
4.527473e-02
5.852152e-02
4.527473e-02
5.506138e-02
4.365740e-02
5.506138e-02
4.365740e-02
5.146183e-02
4.165555e-02
5.146183e-02
4.165555e-02
4.772441e-02
3.930631e-02
4.772441e-02
3.930631e-02
4.385341e-02
3.664686e-02
4.385341e-02
3.664686e-02
3.985561e-02
3.371309e-02
3.985561e-02
3.371309e-02
3.573982e-02
3.053901e-02
3.573982e-02
3.053901e-02
3.151643e-02
2.715664e-02
3.151643e-02
2.715664e-02
2.719701e-02
2.359611e-02
2.719701e-02
2.359611e-02
2.279406e-02
1.988588e-02
2.279406e-02
1.988588e-02
1.832072e-02
1.605298e-02
1.832072e-02
1.605298e-02
1.379060e-02
1.212328e-02
1.379060e-02
1.212328e-02
9.217637e-03
8.121757e-03
9.217637e-03
8.121757e-03
4.616003e-03
4.072706e-03
4.616003e-03
4.072706e-03
0.000000e+00
0.000000e+00
</DataArray>
<DataArray type="Float32" Name="V4" format="ascii">
8.500000e-01
1.000000e+00
8.500000e-01
1.000000e+00
8.500000e-01
1.000000e+00
8.500000e-01
1.000000e+00
8.500000e-01
1.000000e+00
8.500000e-01
1.000000e+00
8.500000e-01
1.000000e+00
8.500000e-01
1.000000e+00
8.500000e-01
1.000000e+00
8.500000e-01
1.000000e+00
8.500000e-01
1.000000e+00
8.500000e-01
1.000000e+00
8.500000e-01
1.000000e+00
8.500000e-01
1.000000e+00
8.500000e-01
1.000000e+00
8.500000e-01
1.000000e+00
8.500000e-01
1.000000e+00
8.500000e-01
1.000000e+00
8.500000e-01
1.000000e+00
8.500000e-01
1.000000e+00
8.500000e-01
1.000000e+00
8.500000e-01
1.000000e+00
8.500000e-01
1.000000e+00
8.500000e-01
1.000000e+00
8.500000e-01
1.000000e+00
8.500000e-01
1.000000e+00
8.500000e-01
1.000000e+00
8.500000e-01
1.000000e+00
8.500000e-01
1.000000e+00
8.500000e-01
1.000000e+00
8.500000e-01
1.000000e+00
8.500000e-01
1.000000e+00
8.500000e-01
1.000000e+00
8.500000e-01
1.000000e+00
8.500000e-01
1.000000e+00
8.500000e-01
1.000000e+00
8.500000e-01
1.000000e+00
8.500000e-01
1.000000e+00
8.500000e-01
1.000000e+00
8.500000e-01
1.000000e+00
8.500000e-01
1.000000e+00
8.500000e-01
1.000000e+00
8.500000e-01
1.000000e+00
8.500000e-01
1.000000e+00
8.500000e-01
1.000000e+00
8.500000e-01
1.000000e+00
8.500000e-01
1.000000e+00
8.500000e-01
1.000000e+00
8.500000e-01
1.000000e+00
8.500000e-01
1.000000e+00
8.500000e-01
1.000000e+00
8.500000e-01
1.000000e+00
8.500000e-01
1.000000e+00
8.500000e-01
1.000000e+00
8.500000e-01
1.000000e+00
8.500000e-01
1.000000e+00
8.500000e-01
1.000000e+00
8.500000e-01
1.000000e+00
8.500000e-01
1.000000e+00
8.500000e-01
1.000000e+00
</DataArray>
<DataArray type="Float32" Name="V5" format="ascii">
0.000000e+00
0.000000e+00
5.235988e-02
5.235988e-02
5.235988e-02
5.235988e-02
1.047198e-01
1.047198e-01
1.047198e-01
1.047198e-01
1.570796e-01
1.570796e-01
1.570796e-01
1.570796e-01
2.094395e-01
2.094395e-01
2.094395e-01
2.094395e-01
2.617994e-01
2.617994e-01
2.617994e-01
2.617994e-01
3.141593e-01
3.141593e-01
3.141593e-01
3.141593e-01
3.665191e-01
3.665191e-01
3.665191e-01
3.665191e-01
4.188790e-01
4.188790e-01
4.188790e-01
4.188790e-01
4.712389e-01
4.712389e-01
4.712389e-01
4.712389e-01
5.235988e-01
5.235988e-01
5.235988e-01
5.235988e-01
5.759587e-01
5.759587e-01
5.759587e-01
5.759587e-01
6.283185e-01
6.283185e-01
6.283185e-01
6.283185e-01
6.806784e-01
6.806784e-01
6.806784e-01
6.806784e-01
7.330383e-01
7.330383e-01
7.330383e-01
7.330383e-01
7.853982e-01
7.853982e-01
7.853982e-01
7.853982e-01
8.377580e-01
8.377580e-01
8.377580e-01
8.377580e-01
8.901179e-01
8.901179e-01
8.901179e-01
8.901179e-01
9.424778e-01
9.424778e-01
9.424778e-01
9.424778e-01
9.948377e-01
9.948377e-01
9.948377e-01
9.948377e-01
1.047198e+00
1.047198e+00
1.047198e+00
1.047198e+00
1.099557e+00
1.099557e+00
1.099557e+00
1.099557e+00
1.151917e+00
1.151917e+00
1.151917e+00
1.151917e+00
1.204277e+00
1.204277e+00
1.204277e+00
1.204277e+00
1.256637e+00
1.256637e+00
1.256637e+00
1.256637e+00
1.308997e+00
1.308997e+00
1.308997e+00
1.308997e+00
1.361357e+00
1.361357e+00
1.361357e+00
1.361357e+00
1.413717e+00
1.413717e+00
1.413717e+00
1.413717e+00
1.466077e+00
1.466077e+00
1.466077e+00
1.466077e+00
1.518436e+00
1.518436e+00
1.518436e+00
1.518436e+00
1.570796e+00
1.570796e+00
</DataArray>
</PointData>
</Piece></UnstructuredGrid>
</VTKFile>
