<?xml version="1.0"?>
<VTKFile type="UnstructuredGrid" version="0.1" byte_order="LittleEndian" compressor="vtkZLibDataCompressor">
<UnstructuredGrid>
<Piece NumberOfPoints="120" NumberOfCells="30">
<Points>
<DataArray type="Float32" NumberOfComponents="3" format="ascii">
0.000000e+00 7.450627e-01 0.000000e+00
0.000000e+00 8.500000e-01 0.000000e+00
5.803680e-02 7.451210e-01 0.000000e+00
5.793638e-02 8.500000e-01 0.000000e+00
5.803680e-02 7.451210e-01 0.000000e+00
5.793638e-02 8.500000e-01 0.000000e+00
1.160731e-01 7.452730e-01 0.000000e+00
1.158785e-01 8.500000e-01 0.000000e+00
1.160731e-01 7.452730e-01 0.000000e+00
1.158785e-01 8.500000e-01 0.000000e+00
1.741045e-01 7.455298e-01 0.000000e+00
1.738374e-01 8.500000e-01 0.000000e+00
1.741045e-01 7.455298e-01 0.000000e+00
1.738374e-01 8.500000e-01 0.000000e+00
2.321223e-01 7.458973e-01 0.000000e+00
2.318338e-01 8.500000e-01 0.000000e+00
2.321223e-01 7.458973e-01 0.000000e+00
2.318338e-01 8.500000e-01 0.000000e+00
2.901059e-01 7.463856e-01 0.000000e+00
2.899095e-01 8.500000e-01 0.000000e+00
2.901059e-01 7.463856e-01 0.000000e+00
2.899095e-01 8.500000e-01 0.000000e+00
3.480087e-01 7.470088e-01 0.000000e+00
3.481457e-01 8.500000e-01 0.000000e+00
3.480087e-01 7.470088e-01 0.000000e+00
3.481457e-01 8.500000e-01 0.000000e+00
4.057309e-01 7.477765e-01 0.000000e+00
4.066865e-01 8.500000e-01 0.000000e+00
4.057309e-01 7.477765e-01 0.000000e+00
4.066865e-01 8.500000e-01 0.000000e+00
4.630686e-01 7.486601e-01 0.000000e+00
4.657570e-01 8.500000e-01 0.000000e+00
4.630686e-01 7.486601e-01 0.000000e+00
4.657570e-01 8.500000e-01 0.000000e+00
5.196296e-01 7.494792e-01 0.000000e+00
5.256187e-01 8.500000e-01 0.000000e+00
5.196296e-01 7.494792e-01 0.000000e+00
5.256187e-01 8.500000e-01 0.000000e+00
5.748189e-01 7.496372e-01 0.000000e+00
5.862527e-01 8.500000e-01 0.000000e+00
5.748189e-01 7.496372e-01 0.000000e+00
5.862527e-01 8.500000e-01 0.000000e+00
6.290328e-01 7.478315e-01 0.000000e+00
6.462702e-01 8.482511e-01 0.000000e+00
6.290328e-01 7.478315e-01 0.000000e+00
6.462702e-01 8.482511e-01 0.000000e+00
6.815495e-01 7.403625e-01 0.000000e+00
7.057104e-01 8.383221e-01 0.000000e+00
6.815495e-01 7.403625e-01 0.000000e+00
7.057104e-01 8.383221e-01 0.000000e+00
7.322636e-01 7.275683e-01 0.000000e+00
7.644634e-01 8.220390e-01 0.000000e+00
7.322636e-01 7.275683e-01 0.000000e+00
7.644634e-01 8.220390e-01 0.000000e+00
7.812452e-01 7.093956e-01 0.000000e+00
8.215112e-01 7.996787e-01 0.000000e+00
7.812452e-01 7.093956e-01 0.000000e+00
8.215112e-01 7.996787e-01 0.000000e+00
8.283064e-01 6.862958e-01 0.000000e+00
8.761659e-01 7.718272e-01 0.000000e+00
8.283064e-01 6.862958e-01 0.000000e+00
8.761659e-01 7.718272e-01 0.000000e+00
8.732124e-01 6.586904e-01 0.000000e+00
9.279798e-01 7.390715e-01 0.000000e+00
8.732124e-01 6.586904e-01 0.000000e+00
9.279798e-01 7.390715e-01 0.000000e+00
9.157413e-01 6.270072e-01 0.000000e+00
9.766807e-01 7.019754e-01 0.000000e+00
9.157413e-01 6.270072e-01 0.000000e+00
9.766807e-01 7.019754e-01 0.000000e+00
9.556984e-01 5.916551e-01 0.000000e+00
1.022098e+00 6.610467e-01 0.000000e+00
9.556984e-01 5.916551e-01 0.000000e+00
1.022098e+00 6.610467e-01 0.000000e+00
9.929188e-01 5.530197e-01 0.000000e+00
1.064119e+00 6.167364e-01 0.000000e+00
9.929188e-01 5.530197e-01 0.000000e+00
1.064119e+00 6.167364e-01 0.000000e+00
1.027266e+00 5.114600e-01 0.000000e+00
1.102669e+00 5.694450e-01 0.000000e+00
1.027266e+00 5.114600e-01 0.000000e+00
1.102669e+00 5.694450e-01 0.000000e+00
1.058625e+00 4.673105e-01 0.000000e+00
1.137689e+00 5.195318e-01 0.000000e+00
1.058625e+00 4.673105e-01 0.000000e+00
1.137689e+00 5.195318e-01 0.000000e+00
1.086902e+00 4.208834e-01 0.000000e+00
1.169135e+00 4.673230e-01 0.000000e+00
1.086902e+00 4.208834e-01 0.000000e+00
1.169135e+00 4.673230e-01 0.000000e+00
1.112018e+00 3.724716e-01 0.000000e+00
1.196969e+00 4.131195e-01 0.000000e+00
1.112018e+00 3.724716e-01 0.000000e+00
1.196969e+00 4.131195e-01 0.000000e+00
1.133907e+00 3.223526e-01 0.000000e+00
1.221159e+00 3.572026e-01 0.000000e+00
1.133907e+00 3.223526e-01 0.000000e+00
1.221159e+00 3.572026e-01 0.000000e+00
1.152515e+00 2.707907e-01 0.000000e+00
1.241677e+00 2.998385e-01 0.000000e+00
1.152515e+00 2.707907e-01 0.000000e+00
1.241677e+00 2.998385e-01 0.000000e+00
1.167799e+00 2.180402e-01 0.000000e+00
1.258497e+00 2.412826e-01 0.000000e+00
1.167799e+00 2.180402e-01 0.000000e+00
1.258497e+00 2.412826e-01 0.000000e+00
1.179721e+00 1.643474e-01 0.000000e+00
1.271601e+00 1.817817e-01 0.000000e+00
1.179721e+00 1.643474e-01 0.000000e+00
1.271601e+00 1.817817e-01 0.000000e+00
1.188257e+00 1.099528e-01 0.000000e+00
1.280973e+00 1.215769e-01 0.000000e+00
1.188257e+00 1.099528e-01 0.000000e+00
1.280973e+00 1.215769e-01 0.000000e+00
1.193385e+00 5.509247e-02 0.000000e+00
1.286601e+00 6.090492e-02 0.000000e+00
1.193385e+00 5.509247e-02 0.000000e+00
1.286601e+00 6.090492e-02 0.000000e+00
1.195096e+00 5.851890e-12 0.000000e+00
1.288477e+00 6.309140e-12 0.000000e+00
</DataArray>
</Points>
<Cells>
<DataArray type="Int32" Name="connectivity" format="ascii">
0 1 3 2
4 5 7 6
8 9 11 10
12 13 15 14
16 17 19 18
20 21 23 22
24 25 27 26
28 29 31 30
32 33 35 34
36 37 39 38
40 41 43 42
44 45 47 46
48 49 51 50
52 53 55 54
56 57 59 58
60 61 63 62
64 65 67 66
68 69 71 70
72 73 75 74
76 77 79 78
80 81 83 82
84 85 87 86
88 89 91 90
92 93 95 94
96 97 99 98
100 101 103 102
104 105 107 106
108 109 111 110
112 113 115 114
116 117 119 118
</DataArray>
<DataArray type="Int32" Name="offsets" format="ascii">
4
8
12
16
20
24
28
32
36
40
44
48
52
56
60
64
68
72
76
80
84
88
92
96
100
104
108
112
116
120
</DataArray>
<DataArray type="UInt8" Name="types" format="ascii">
9
9
9
9
9
9
9
9
9
9
9
9
9
9
9
9
9
9
9
9
9
9
9
9
9
9
9
9
9
9
</DataArray>
</Cells>
<PointData>
<DataArray type="Float32" Name="V1" format="ascii">
1.467850e+01
-2.600189e-01
1.470047e+01
-2.380518e-01
1.472380e+01
-2.551334e-01
1.478125e+01
-1.976810e-01
1.482858e+01
-2.309778e-01
1.492517e+01
-1.343900e-01
1.499105e+01
-1.817183e-01
1.512710e+01
-4.566165e-02
1.520122e+01
-1.002212e-01
1.537772e+01
7.627621e-02
1.543541e+01
3.083857e-02
1.565544e+01
2.508698e-01
1.564225e+01
2.513903e-01
1.591499e+01
5.241241e-01
1.571906e+01
6.495507e-01
1.606986e+01
1.000356e+00
1.547905e+01
1.410932e+00
1.597980e+01
1.911679e+00
1.461737e+01
2.930654e+00
1.547541e+01
3.788700e+00
1.294994e+01
6.154317e+00
1.419439e+01
7.398762e+00
1.240781e+01
8.720400e+00
1.300745e+01
9.320036e+00
1.236544e+01
9.806794e+00
1.288174e+01
1.032310e+01
1.266056e+01
1.051173e+01
1.316091e+01
1.101207e+01
1.317340e+01
1.100576e+01
1.364692e+01
1.147928e+01
1.377603e+01
1.137244e+01
1.421254e+01
1.180895e+01
1.439756e+01
1.165514e+01
1.479273e+01
1.205032e+01
1.499806e+01
1.188066e+01
1.535117e+01
1.223377e+01
1.555681e+01
1.206536e+01
1.586920e+01
1.237775e+01
1.606415e+01
1.221955e+01
1.633821e+01
1.249361e+01
1.651678e+01
1.234992e+01
1.675524e+01
1.258839e+01
1.691486e+01
1.246093e+01
1.712049e+01
1.266655e+01
1.726033e+01
1.255562e+01
1.743569e+01
1.273098e+01
1.755586e+01
1.263618e+01
1.770326e+01
1.278358e+01
1.780434e+01
1.270422e+01
1.792578e+01
1.282565e+01
1.800851e+01
1.276094e+01
1.810565e+01
1.285807e+01
1.817079e+01
1.280726e+01
1.824497e+01
1.288145e+01
1.829320e+01
1.284392e+01
1.834546e+01
1.289618e+01
1.837730e+01
1.287144e+01
1.840837e+01
1.290250e+01
1.842420e+01
1.289022e+01
1.843451e+01
1.290053e+01
</DataArray>
<DataArray type="Float32" Name="V2" format="ascii">
7.450627e-01
8.500000e-01
7.471372e-01
8.518673e-01
7.471372e-01
8.518673e-01
7.533232e-01
8.574562e-01
7.533232e-01
8.574562e-01
7.635870e-01
8.667293e-01
7.635870e-01
8.667293e-01
7.778585e-01
8.796264e-01
7.778585e-01
8.796264e-01
7.960380e-01
8.960711e-01
7.960380e-01
8.960711e-01
8.179882e-01
9.159810e-01
8.179882e-01
9.159810e-01
8.435104e-01
9.392868e-01
8.435104e-01
9.392868e-01
8.722820e-01
9.659541e-01
8.722820e-01
9.659541e-01
9.036978e-01
9.959814e-01
9.036978e-01
9.959814e-01
9.366143e-01
1.029248e+00
9.366143e-01
1.029248e+00
9.697801e-01
1.063387e+00
9.697801e-01
1.063387e+00
9.995706e-01
1.093023e+00
9.995706e-01
1.093023e+00
1.026255e+00
1.119937e+00
1.026255e+00
1.119937e+00
1.049939e+00
1.143975e+00
1.049939e+00
1.143975e+00
1.070986e+00
1.165307e+00
1.070986e+00
1.165307e+00
1.089673e+00
1.184159e+00
1.089673e+00
1.184159e+00
1.106253e+00
1.200791e+00
1.106253e+00
1.200791e+00
1.120942e+00
1.215448e+00
1.120942e+00
1.215448e+00
1.133928e+00
1.228344e+00
1.133928e+00
1.228344e+00
1.145368e+00
1.239662e+00
1.145368e+00
1.239662e+00
1.155396e+00
1.249551e+00
1.155396e+00
1.249551e+00
1.164123e+00
1.258136e+00
1.164123e+00
1.258136e+00
1.171640e+00
1.265516e+00
1.171640e+00
1.265516e+00
1.178022e+00
1.271773e+00
1.178022e+00
1.271773e+00
1.183330e+00
1.276971e+00
1.183330e+00
1.276971e+00
1.187613e+00
1.281162e+00
1.187613e+00
1.281162e+00
1.190907e+00
1.284383e+00
1.190907e+00
1.284383e+00
1.193240e+00
1.286664e+00
1.193240e+00
1.286664e+00
1.194633e+00
1.288025e+00
1.194633e+00
1.288025e+00
1.195096e+00
1.288477e+00
</DataArray>
<DataArray type="Float32" Name="V3" format="ascii">
0.000000e+00
0.000000e+00
1.896065e-02
1.337142e-02
1.896065e-02
1.337142e-02
3.753505e-02
2.639451e-02
3.753505e-02
2.639451e-02
5.533440e-02
3.872792e-02
5.533440e-02
3.872792e-02
7.196910e-02
5.004270e-02
7.196910e-02
5.004270e-02
8.704195e-02
6.003489e-02
8.704195e-02
6.003489e-02
1.001375e-01
6.844177e-02
1.001375e-01
6.844177e-02
1.108033e-01
7.506180e-02
1.108033e-01
7.506180e-02
1.185267e-01
7.976400e-02
1.185267e-01
7.976400e-02
1.227370e-01
8.243777e-02
1.227370e-01
8.243777e-02
1.229891e-01
8.270976e-02
1.229891e-01
8.270976e-02
1.202530e-01
8.001709e-02
1.202530e-01
8.001709e-02
1.162110e-01
7.817834e-02
1.162110e-01
7.817834e-02
1.112022e-01
7.677375e-02
1.112022e-01
7.677375e-02
1.059000e-01
7.541230e-02
1.059000e-01
7.541230e-02
1.004166e-01
7.377864e-02
1.004166e-01
7.377864e-02
9.479075e-02
7.170251e-02
9.479075e-02
7.170251e-02
8.901861e-02
6.910769e-02
8.901861e-02
6.910769e-02
8.308634e-02
6.597583e-02
8.308634e-02
6.597583e-02
7.698104e-02
6.232219e-02
7.698104e-02
6.232219e-02
7.069544e-02
5.818051e-02
7.069544e-02
5.818051e-02
6.422886e-02
5.359384e-02
6.422886e-02
5.359384e-02
5.758667e-02
4.860933e-02
5.758667e-02
4.860933e-02
5.077926e-02
4.327517e-02
5.077926e-02
4.327517e-02
4.382099e-02
3.763913e-02
4.382099e-02
3.763913e-02
3.672922e-02
3.174779e-02
3.672922e-02
3.174779e-02
2.952351e-02
2.564634e-02
2.952351e-02
2.564634e-02
2.222507e-02
1.937861e-02
2.222507e-02
1.937861e-02
1.485620e-02
1.298727e-02
1.485620e-02
1.298727e-02
7.439988e-03
6.514027e-03
7.439988e-03
6.514027e-03
0.000000e+00
0.000000e+00
</DataArray>
<DataArray type="Float32" Name="V4" format="ascii">
8.500000e-01
1.000000e+00
8.500000e-01
1.000000e+00
8.500000e-01
1.000000e+00
8.500000e-01
1.000000e+00
8.500000e-01
1.000000e+00
8.500000e-01
1.000000e+00
8.500000e-01
1.000000e+00
8.500000e-01
1.000000e+00
8.500000e-01
1.000000e+00
8.500000e-01
1.000000e+00
8.500000e-01
1.000000e+00
8.500000e-01
1.000000e+00
8.500000e-01
1.000000e+00
8.500000e-01
1.000000e+00
8.500000e-01
1.000000e+00
8.500000e-01
1.000000e+00
8.500000e-01
1.000000e+00
8.500000e-01
1.000000e+00
8.500000e-01
1.000000e+00
8.500000e-01
1.000000e+00
8.500000e-01
1.000000e+00
8.500000e-01
1.000000e+00
8.500000e-01
1.000000e+00
8.500000e-01
1.000000e+00
8.500000e-01
1.000000e+00
8.500000e-01
1.000000e+00
8.500000e-01
1.000000e+00
8.500000e-01
1.000000e+00
8.500000e-01
1.000000e+00
8.500000e-01
1.000000e+00
8.500000e-01
1.000000e+00
8.500000e-01
1.000000e+00
8.500000e-01
1.000000e+00
8.500000e-01
1.000000e+00
8.500000e-01
1.000000e+00
8.500000e-01
1.000000e+00
8.500000e-01
1.000000e+00
8.500000e-01
1.000000e+00
8.500000e-01
1.000000e+00
8.500000e-01
1.000000e+00
8.500000e-01
1.000000e+00
8.500000e-01
1.000000e+00
8.500000e-01
1.000000e+00
8.500000e-01
1.000000e+00
8.500000e-01
1.000000e+00
8.500000e-01
1.000000e+00
8.500000e-01
1.000000e+00
8.500000e-01
1.000000e+00
8.500000e-01
1.000000e+00
8.500000e-01
1.000000e+00
8.500000e-01
1.000000e+00
8.500000e-01
1.000000e+00
8.500000e-01
1.000000e+00
8.500000e-01
1.000000e+00
8.500000e-01
1.000000e+00
8.500000e-01
1.000000e+00
8.500000e-01
1.000000e+00
8.500000e-01
1.000000e+00
8.500000e-01
1.000000e+00
8.500000e-01
1.000000e+00
</DataArray>
<DataArray type="Float32" Name="V5" format="ascii">
0.000000e+00
0.000000e+00
5.235988e-02
5.235988e-02
5.235988e-02
5.235988e-02
1.047198e-01
1.047198e-01
1.047198e-01
1.047198e-01
1.570796e-01
1.570796e-01
1.570796e-01
1.570796e-01
2.094395e-01
2.094395e-01
2.094395e-01
2.094395e-01
2.617994e-01
2.617994e-01
2.617994e-01
2.617994e-01
3.141593e-01
3.141593e-01
3.141593e-01
3.141593e-01
3.665191e-01
3.665191e-01
3.665191e-01
3.665191e-01
4.188790e-01
4.188790e-01
4.188790e-01
4.188790e-01
4.712389e-01
4.712389e-01
4.712389e-01
4.712389e-01
5.235988e-01
5.235988e-01
5.235988e-01
5.235988e-01
5.759587e-01
5.759587e-01
5.759587e-01
5.759587e-01
6.283185e-01
6.283185e-01
6.283185e-01
6.283185e-01
6.806784e-01
6.806784e-01
6.806784e-01
6.806784e-01
7.330383e-01
7.330383e-01
7.330383e-01
7.330383e-01
7.853982e-01
7.853982e-01
7.853982e-01
7.853982e-01
8.377580e-01
8.377580e-01
8.377580e-01
8.377580e-01
8.901179e-01
8.901179e-01
8.901179e-01
8.901179e-01
9.424778e-01
9.424778e-01
9.424778e-01
9.424778e-01
9.948377e-01
9.948377e-01
9.948377e-01
9.948377e-01
1.047198e+00
1.047198e+00
1.047198e+00
1.047198e+00
1.099557e+00
1.099557e+00
1.099557e+00
1.099557e+00
1.151917e+00
1.151917e+00
1.151917e+00
1.151917e+00
1.204277e+00
1.204277e+00
1.204277e+00
1.204277e+00
1.256637e+00
1.256637e+00
1.256637e+00
1.256637e+00
1.308997e+00
1.308997e+00
1.308997e+00
1.308997e+00
1.361357e+00
1.361357e+00
1.361357e+00
1.361357e+00
1.413717e+00
1.413717e+00
1.413717e+00
1.413717e+00
1.466077e+00
1.466077e+00
1.466077e+00
1.466077e+00
1.518436e+00
1.518436e+00
1.518436e+00
1.518436e+00
1.570796e+00
1.570796e+00
</DataArray>
</PointData>
</Piece></UnstructuredGrid>
</VTKFile>
