<?xml version="1.0"?>
<VTKFile type="UnstructuredGrid" version="0.1" byte_order="LittleEndian" compressor="vtkZLibDataCompressor">
<UnstructuredGrid>
<Piece NumberOfPoints="120" NumberOfCells="30">
<Points>
<DataArray type="Float32" NumberOfComponents="3" format="ascii">
0.000000e+00 3.813845e-01 0.000000e+00
0.000000e+00 4.200000e-01 0.000000e+00
9.561114e-02 3.814274e-01 0.000000e+00
9.560192e-02 4.200000e-01 0.000000e+00
9.561114e-02 3.814274e-01 0.000000e+00
9.560192e-02 4.200000e-01 0.000000e+00
1.912136e-01 3.814724e-01 0.000000e+00
1.911950e-01 4.200000e-01 0.000000e+00
1.912136e-01 3.814724e-01 0.000000e+00
1.911950e-01 4.200000e-01 0.000000e+00
2.867935e-01 3.815458e-01 0.000000e+00
2.867654e-01 4.200000e-01 0.000000e+00
2.867935e-01 3.815458e-01 0.000000e+00
2.867654e-01 4.200000e-01 0.000000e+00
3.823397e-01 3.816483e-01 0.000000e+00
3.823019e-01 4.200000e-01 0.000000e+00
3.823397e-01 3.816483e-01 0.000000e+00
3.823019e-01 4.200000e-01 0.000000e+00
4.778406e-01 3.817798e-01 0.000000e+00
4.777926e-01 4.200000e-01 0.000000e+00
4.778406e-01 3.817798e-01 0.000000e+00
4.777926e-01 4.200000e-01 0.000000e+00
5.732839e-01 3.819399e-01 0.000000e+00
5.732255e-01 4.200000e-01 0.000000e+00
5.732839e-01 3.819399e-01 0.000000e+00
5.732255e-01 4.200000e-01 0.000000e+00
6.686569e-01 3.821281e-01 0.000000e+00
6.685876e-01 4.200000e-01 0.000000e+00
6.686569e-01 3.821281e-01 0.000000e+00
6.685876e-01 4.200000e-01 0.000000e+00
7.639462e-01 3.823439e-01 0.000000e+00
7.638654e-01 4.200000e-01 0.000000e+00
7.639462e-01 3.823439e-01 0.000000e+00
7.638654e-01 4.200000e-01 0.000000e+00
8.591374e-01 3.825867e-01 0.000000e+00
8.590445e-01 4.200000e-01 0.000000e+00
8.591374e-01 3.825867e-01 0.000000e+00
8.590445e-01 4.200000e-01 0.000000e+00
9.542152e-01 3.828559e-01 0.000000e+00
9.541098e-01 4.200000e-01 0.000000e+00
9.542152e-01 3.828559e-01 0.000000e+00
9.541098e-01 4.200000e-01 0.000000e+00
1.049163e+00 3.831508e-01 0.000000e+00
1.049045e+00 4.200000e-01 0.000000e+00
1.049163e+00 3.831508e-01 0.000000e+00
1.049045e+00 4.200000e-01 0.000000e+00
1.143963e+00 3.834705e-01 0.000000e+00
1.143833e+00 4.200000e-01 0.000000e+00
1.143963e+00 3.834705e-01 0.000000e+00
1.143833e+00 4.200000e-01 0.000000e+00
1.238595e+00 3.838141e-01 0.000000e+00
1.238455e+00 4.200000e-01 0.000000e+00
1.238595e+00 3.838141e-01 0.000000e+00
1.238455e+00 4.200000e-01 0.000000e+00
1.333038e+00 3.841803e-01 0.000000e+00
1.332894e+00 4.200000e-01 0.000000e+00
1.333038e+00 3.841803e-01 0.000000e+00
1.332894e+00 4.200000e-01 0.000000e+00
1.427267e+00 3.845676e-01 0.000000e+00
1.427130e+00 4.200000e-01 0.000000e+00
1.427267e+00 3.845676e-01 0.000000e+00
1.427130e+00 4.200000e-01 0.000000e+00
1.521253e+00 3.849733e-01 0.000000e+00
1.521145e+00 4.200000e-01 0.000000e+00
1.521253e+00 3.849733e-01 0.000000e+00
1.521145e+00 4.200000e-01 0.000000e+00
1.614962e+00 3.853934e-01 0.000000e+00
1.614928e+00 4.200000e-01 0.000000e+00
1.614962e+00 3.853934e-01 0.000000e+00
1.614928e+00 4.200000e-01 0.000000e+00
1.708349e+00 3.858214e-01 0.000000e+00
1.708472e+00 4.200000e-01 0.000000e+00
1.708349e+00 3.858214e-01 0.000000e+00
1.708472e+00 4.200000e-01 0.000000e+00
1.801355e+00 3.862469e-01 0.000000e+00
1.801795e+00 4.200000e-01 0.000000e+00
1.801355e+00 3.862469e-01 0.000000e+00
1.801795e+00 4.200000e-01 0.000000e+00
1.893897e+00 3.866576e-01 0.000000e+00
1.894958e+00 4.200000e-01 0.000000e+00
1.893897e+00 3.866576e-01 0.000000e+00
1.894958e+00 4.200000e-01 0.000000e+00
1.985844e+00 3.870511e-01 0.000000e+00
1.988113e+00 4.200000e-01 0.000000e+00
1.985844e+00 3.870511e-01 0.000000e+00
1.988113e+00 4.200000e-01 0.000000e+00
2.076957e+00 3.874720e-01 0.000000e+00
2.081579e+00 4.200000e-01 0.000000e+00
2.076957e+00 3.874720e-01 0.000000e+00
2.081579e+00 4.200000e-01 0.000000e+00
2.166821e+00 3.880845e-01 0.000000e+00
2.176067e+00 4.200000e-01 0.000000e+00
2.166821e+00 3.880845e-01 0.000000e+00
2.176067e+00 4.200000e-01 0.000000e+00
2.255693e+00 3.851679e-01 0.000000e+00
2.267751e+00 4.148811e-01 0.000000e+00
2.255693e+00 3.851679e-01 0.000000e+00
2.267751e+00 4.148811e-01 0.000000e+00
2.337303e+00 3.547433e-01 0.000000e+00
2.353218e+00 3.817254e-01 0.000000e+00
2.337303e+00 3.547433e-01 0.000000e+00
2.353218e+00 3.817254e-01 0.000000e+00
2.406394e+00 3.044550e-01 0.000000e+00
2.426979e+00 3.275735e-01 0.000000e+00
2.406394e+00 3.044550e-01 0.000000e+00
2.426979e+00 3.275735e-01 0.000000e+00
2.460994e+00 2.399834e-01 0.000000e+00
2.485680e+00 2.580023e-01 0.000000e+00
2.460994e+00 2.399834e-01 0.000000e+00
2.485680e+00 2.580023e-01 0.000000e+00
2.500622e+00 1.654631e-01 0.000000e+00
2.528205e+00 1.776655e-01 0.000000e+00
2.500622e+00 1.654631e-01 0.000000e+00
2.528205e+00 1.776655e-01 0.000000e+00
2.524767e+00 8.435823e-02 0.000000e+00
2.554008e+00 9.048011e-02 0.000000e+00
2.524767e+00 8.435823e-02 0.000000e+00
2.554008e+00 9.048011e-02 0.000000e+00
2.532879e+00 1.240246e-11 0.000000e+00
2.562656e+00 1.254827e-11 0.000000e+00
</DataArray>
</Points>
<Cells>
<DataArray type="Int32" Name="connectivity" format="ascii">
0 1 3 2
4 5 7 6
8 9 11 10
12 13 15 14
16 17 19 18
20 21 23 22
24 25 27 26
28 29 31 30
32 33 35 34
36 37 39 38
40 41 43 42
44 45 47 46
48 49 51 50
52 53 55 54
56 57 59 58
60 61 63 62
64 65 67 66
68 69 71 70
72 73 75 74
76 77 79 78
80 81 83 82
84 85 87 86
88 89 91 90
92 93 95 94
96 97 99 98
100 101 103 102
104 105 107 106
108 109 111 110
112 113 115 114
116 117 119 118
</DataArray>
<DataArray type="Int32" Name="offsets" format="ascii">
4
8
12
16
20
24
28
32
36
40
44
48
52
56
60
64
68
72
76
80
84
88
92
96
100
104
108
112
116
120
</DataArray>
<DataArray type="UInt8" Name="types" format="ascii">
9
9
9
9
9
9
9
9
9
9
9
9
9
9
9
9
9
9
9
9
9
9
9
9
9
9
9
9
9
9
</DataArray>
</Cells>
<PointData>
<DataArray type="Float32" Name="V1" format="ascii">
6.978027e+02
7.950796e+01
6.985039e+02
8.020917e+01
6.994688e+02
7.953280e+01
7.014410e+02
8.150497e+01
7.034099e+02
8.017901e+01
7.067118e+02
8.348092e+01
7.097067e+02
8.148572e+01
7.143691e+02
8.614815e+01
7.184236e+02
8.346441e+01
7.245015e+02
8.954232e+01
7.296594e+02
8.613859e+01
7.372258e+02
9.370505e+01
7.435441e+02
8.954123e+01
7.526913e+02
9.868836e+01
7.602420e+02
9.371507e+01
7.710834e+02
1.045566e+02
7.799545e+02
9.871380e+01
7.926289e+02
1.113882e+02
8.029261e+02
1.046038e+02
8.176009e+02
1.192787e+02
8.294490e+02
1.114665e+02
8.463263e+02
1.283438e+02
8.598707e+02
1.194015e+02
8.791939e+02
1.387248e+02
8.946005e+02
1.285315e+02
9.166642e+02
1.505952e+02
9.341172e+02
1.390091e+02
9.592804e+02
1.641722e+02
9.789735e+02
1.510278e+02
1.007680e+03
1.797339e+02
1.029795e+03
1.648403e+02
1.062602e+03
1.976471e+02
1.087269e+03
1.807898e+02
1.124895e+03
2.184153e+02
1.152100e+03
1.993687e+02
1.195491e+03
2.427602e+02
1.224918e+03
2.213349e+02
1.275342e+03
2.717593e+02
1.306086e+03
2.479693e+02
1.365195e+03
3.070778e+02
1.395316e+03
2.816883e+02
1.464984e+03
3.513558e+02
1.490866e+03
3.275535e+02
1.572250e+03
4.089376e+02
1.587849e+03
3.968215e+02
1.678206e+03
4.871783e+02
1.651870e+03
5.236557e+02
1.775894e+03
6.476794e+02
1.773152e+03
6.409374e+02
1.878341e+03
7.461265e+02
1.912708e+03
7.306597e+02
2.008929e+03
8.268803e+02
2.059287e+03
8.010026e+02
2.142490e+03
8.842056e+02
2.195304e+03
8.531727e+02
2.259789e+03
9.176575e+02
2.300555e+03
8.919462e+02
2.341595e+03
9.329862e+02
2.362876e+03
9.190069e+02
2.376966e+03
9.330972e+02
</DataArray>
<DataArray type="Float32" Name="V2" format="ascii">
3.813845e-01
4.200000e-01
3.859086e-01
4.244278e-01
3.859086e-01
4.244278e-01
3.993699e-01
4.376845e-01
3.993699e-01
4.376845e-01
4.217127e-01
4.596891e-01
4.217127e-01
4.596891e-01
4.528013e-01
4.903070e-01
4.528013e-01
4.903070e-01
4.924453e-01
5.293507e-01
4.924453e-01
5.293507e-01
5.404009e-01
5.765802e-01
5.404009e-01
5.765802e-01
5.963725e-01
6.317041e-01
5.963725e-01
6.317041e-01
6.600134e-01
6.943811e-01
6.600134e-01
6.943811e-01
7.309275e-01
7.642208e-01
7.309275e-01
7.642208e-01
8.086706e-01
8.407856e-01
8.086706e-01
8.407856e-01
8.927525e-01
9.235925e-01
8.927525e-01
9.235925e-01
9.826387e-01
1.012115e+00
9.826387e-01
1.012115e+00
1.077753e+00
1.105787e+00
1.077753e+00
1.105787e+00
1.177478e+00
1.204001e+00
1.177478e+00
1.204001e+00
1.281161e+00
1.306118e+00
1.281161e+00
1.306118e+00
1.388109e+00
1.411466e+00
1.388109e+00
1.411466e+00
1.497597e+00
1.519349e+00
1.497597e+00
1.519349e+00
1.608863e+00
1.629053e+00
1.608863e+00
1.629053e+00
1.721109e+00
1.739861e+00
1.721109e+00
1.739861e+00
1.833492e+00
1.851082e+00
1.833492e+00
1.851082e+00
1.945117e+00
1.962098e+00
1.945117e+00
1.962098e+00
2.054993e+00
2.072447e+00
2.054993e+00
2.072447e+00
2.161979e+00
2.182048e+00
2.161979e+00
2.182048e+00
2.264315e+00
2.284965e+00
2.264315e+00
2.284965e+00
2.349476e+00
2.371832e+00
2.349476e+00
2.371832e+00
2.417108e+00
2.442050e+00
2.417108e+00
2.442050e+00
2.468237e+00
2.495438e+00
2.468237e+00
2.495438e+00
2.504219e+00
2.532926e+00
2.504219e+00
2.532926e+00
2.525721e+00
2.555244e+00
2.525721e+00
2.555244e+00
2.532879e+00
2.562656e+00
</DataArray>
<DataArray type="Float32" Name="V3" format="ascii">
0.000000e+00
0.000000e+00
7.551773e-02
7.348980e-02
7.551773e-02
7.348980e-02
1.502914e-01
1.462457e-01
1.502914e-01
1.462457e-01
2.235757e-01
2.175324e-01
2.235757e-01
2.175324e-01
2.946356e-01
2.866247e-01
2.946356e-01
2.866247e-01
3.627467e-01
3.528083e-01
3.627467e-01
3.528083e-01
4.271995e-01
4.153827e-01
4.271995e-01
4.153827e-01
4.873026e-01
4.736657e-01
4.873026e-01
4.736657e-01
5.423863e-01
5.269963e-01
5.423863e-01
5.269963e-01
5.918063e-01
5.747383e-01
5.918063e-01
5.747383e-01
6.349467e-01
6.162833e-01
6.349467e-01
6.162833e-01
6.712233e-01
6.510547e-01
6.712233e-01
6.510547e-01
7.000872e-01
6.785104e-01
7.000872e-01
6.785104e-01
7.210273e-01
6.981460e-01
7.210273e-01
6.981460e-01
7.335737e-01
7.094983e-01
7.335737e-01
7.094983e-01
7.373000e-01
7.121482e-01
7.373000e-01
7.121482e-01
7.318262e-01
7.057241e-01
7.318262e-01
7.057241e-01
7.168214e-01
6.899056e-01
7.168214e-01
6.899056e-01
6.920061e-01
6.644276e-01
6.920061e-01
6.644276e-01
6.571545e-01
6.290864e-01
6.571545e-01
6.290864e-01
6.120933e-01
5.837482e-01
6.120933e-01
5.837482e-01
5.566890e-01
5.283616e-01
5.566890e-01
5.283616e-01
4.908012e-01
4.629655e-01
4.908012e-01
4.629655e-01
4.142112e-01
3.877289e-01
4.142112e-01
3.877289e-01
3.307309e-01
3.061984e-01
3.307309e-01
3.061984e-01
2.622829e-01
2.403393e-01
2.622829e-01
2.403393e-01
2.025155e-01
1.841821e-01
2.025155e-01
1.841821e-01
1.479555e-01
1.340202e-01
1.479555e-01
1.340202e-01
9.682953e-02
8.757718e-02
9.682953e-02
8.757718e-02
4.789346e-02
4.331037e-02
4.789346e-02
4.331037e-02
0.000000e+00
0.000000e+00
</DataArray>
<DataArray type="Float32" Name="V4" format="ascii">
8.500000e-01
1.000000e+00
8.500000e-01
1.000000e+00
8.500000e-01
1.000000e+00
8.500000e-01
1.000000e+00
8.500000e-01
1.000000e+00
8.500000e-01
1.000000e+00
8.500000e-01
1.000000e+00
8.500000e-01
1.000000e+00
8.500000e-01
1.000000e+00
8.500000e-01
1.000000e+00
8.500000e-01
1.000000e+00
8.500000e-01
1.000000e+00
8.500000e-01
1.000000e+00
8.500000e-01
1.000000e+00
8.500000e-01
1.000000e+00
8.500000e-01
1.000000e+00
8.500000e-01
1.000000e+00
8.500000e-01
1.000000e+00
8.500000e-01
1.000000e+00
8.500000e-01
1.000000e+00
8.500000e-01
1.000000e+00
8.500000e-01
1.000000e+00
8.500000e-01
1.000000e+00
8.500000e-01
1.000000e+00
8.500000e-01
1.000000e+00
8.500000e-01
1.000000e+00
8.500000e-01
1.000000e+00
8.500000e-01
1.000000e+00
8.500000e-01
1.000000e+00
8.500000e-01
1.000000e+00
8.500000e-01
1.000000e+00
8.500000e-01
1.000000e+00
8.500000e-01
1.000000e+00
8.500000e-01
1.000000e+00
8.500000e-01
1.000000e+00
8.500000e-01
1.000000e+00
8.500000e-01
1.000000e+00
8.500000e-01
1.000000e+00
8.500000e-01
1.000000e+00
8.500000e-01
1.000000e+00
8.500000e-01
1.000000e+00
8.500000e-01
1.000000e+00
8.500000e-01
1.000000e+00
8.500000e-01
1.000000e+00
8.500000e-01
1.000000e+00
8.500000e-01
1.000000e+00
8.500000e-01
1.000000e+00
8.500000e-01
1.000000e+00
8.500000e-01
1.000000e+00
8.500000e-01
1.000000e+00
8.500000e-01
1.000000e+00
8.500000e-01
1.000000e+00
8.500000e-01
1.000000e+00
8.500000e-01
1.000000e+00
8.500000e-01
1.000000e+00
8.500000e-01
1.000000e+00
8.500000e-01
1.000000e+00
8.500000e-01
1.000000e+00
8.500000e-01
1.000000e+00
8.500000e-01
1.000000e+00
</DataArray>
<DataArray type="Float32" Name="V5" format="ascii">
0.000000e+00
0.000000e+00
5.235988e-02
5.235988e-02
5.235988e-02
5.235988e-02
1.047198e-01
1.047198e-01
1.047198e-01
1.047198e-01
1.570796e-01
1.570796e-01
1.570796e-01
1.570796e-01
2.094395e-01
2.094395e-01
2.094395e-01
2.094395e-01
2.617994e-01
2.617994e-01
2.617994e-01
2.617994e-01
3.141593e-01
3.141593e-01
3.141593e-01
3.141593e-01
3.665191e-01
3.665191e-01
3.665191e-01
3.665191e-01
4.188790e-01
4.188790e-01
4.188790e-01
4.188790e-01
4.712389e-01
4.712389e-01
4.712389e-01
4.712389e-01
5.235988e-01
5.235988e-01
5.235988e-01
5.235988e-01
5.759587e-01
5.759587e-01
5.759587e-01
5.759587e-01
6.283185e-01
6.283185e-01
6.283185e-01
6.283185e-01
6.806784e-01
6.806784e-01
6.806784e-01
6.806784e-01
7.330383e-01
7.330383e-01
7.330383e-01
7.330383e-01
7.853982e-01
7.853982e-01
7.853982e-01
7.853982e-01
8.377580e-01
8.377580e-01
8.377580e-01
8.377580e-01
8.901179e-01
8.901179e-01
8.901179e-01
8.901179e-01
9.424778e-01
9.424778e-01
9.424778e-01
9.424778e-01
9.948377e-01
9.948377e-01
9.948377e-01
9.948377e-01
1.047198e+00
1.047198e+00
1.047198e+00
1.047198e+00
1.099557e+00
1.099557e+00
1.099557e+00
1.099557e+00
1.151917e+00
1.151917e+00
1.151917e+00
1.151917e+00
1.204277e+00
1.204277e+00
1.204277e+00
1.204277e+00
1.256637e+00
1.256637e+00
1.256637e+00
1.256637e+00
1.308997e+00
1.308997e+00
1.308997e+00
1.308997e+00
1.361357e+00
1.361357e+00
1.361357e+00
1.361357e+00
1.413717e+00
1.413717e+00
1.413717e+00
1.413717e+00
1.466077e+00
1.466077e+00
1.466077e+00
1.466077e+00
1.518436e+00
1.518436e+00
1.518436e+00
1.518436e+00
1.570796e+00
1.570796e+00
</DataArray>
</PointData>
</Piece></UnstructuredGrid>
</VTKFile>
