<?xml version="1.0"?>
<VTKFile type="UnstructuredGrid" version="0.1" byte_order="LittleEndian" compressor="vtkZLibDataCompressor">
<UnstructuredGrid>
<Piece NumberOfPoints="120" NumberOfCells="30">
<Points>
<DataArray type="Float32" NumberOfComponents="3" format="ascii">
0.000000e+00 4.185400e-01 0.000000e+00
0.000000e+00 4.700000e-01 0.000000e+00
8.280952e-02 4.185800e-01 0.000000e+00
8.278985e-02 4.700000e-01 0.000000e+00
8.280952e-02 4.185800e-01 0.000000e+00
8.278985e-02 4.700000e-01 0.000000e+00
1.656100e-01 4.186374e-01 0.000000e+00
1.655699e-01 4.700000e-01 0.000000e+00
1.656100e-01 4.186374e-01 0.000000e+00
1.655699e-01 4.700000e-01 0.000000e+00
2.483884e-01 4.187324e-01 0.000000e+00
2.483281e-01 4.700000e-01 0.000000e+00
2.483884e-01 4.187324e-01 0.000000e+00
2.483281e-01 4.700000e-01 0.000000e+00
3.311336e-01 4.188652e-01 0.000000e+00
3.310533e-01 4.700000e-01 0.000000e+00
3.311336e-01 4.188652e-01 0.000000e+00
3.310533e-01 4.700000e-01 0.000000e+00
4.138342e-01 4.190354e-01 0.000000e+00
4.137341e-01 4.700000e-01 0.000000e+00
4.138342e-01 4.190354e-01 0.000000e+00
4.137341e-01 4.700000e-01 0.000000e+00
4.964781e-01 4.192423e-01 0.000000e+00
4.963586e-01 4.700000e-01 0.000000e+00
4.964781e-01 4.192423e-01 0.000000e+00
4.963586e-01 4.700000e-01 0.000000e+00
5.790526e-01 4.194854e-01 0.000000e+00
5.789142e-01 4.700000e-01 0.000000e+00
5.790526e-01 4.194854e-01 0.000000e+00
5.789142e-01 4.700000e-01 0.000000e+00
6.615443e-01 4.197639e-01 0.000000e+00
6.613880e-01 4.700000e-01 0.000000e+00
6.615443e-01 4.197639e-01 0.000000e+00
6.613880e-01 4.700000e-01 0.000000e+00
7.439389e-01 4.200769e-01 0.000000e+00
7.437663e-01 4.700000e-01 0.000000e+00
7.439389e-01 4.200769e-01 0.000000e+00
7.437663e-01 4.700000e-01 0.000000e+00
8.262207e-01 4.204234e-01 0.000000e+00
8.260347e-01 4.700000e-01 0.000000e+00
8.262207e-01 4.204234e-01 0.000000e+00
8.260347e-01 4.700000e-01 0.000000e+00
9.083728e-01 4.208024e-01 0.000000e+00
9.081785e-01 4.700000e-01 0.000000e+00
9.083728e-01 4.208024e-01 0.000000e+00
9.081785e-01 4.700000e-01 0.000000e+00
9.903761e-01 4.212126e-01 0.000000e+00
9.901829e-01 4.700000e-01 0.000000e+00
9.903761e-01 4.212126e-01 0.000000e+00
9.901829e-01 4.700000e-01 0.000000e+00
1.072209e+00 4.216523e-01 0.000000e+00
1.072034e+00 4.700000e-01 0.000000e+00
1.072209e+00 4.216523e-01 0.000000e+00
1.072034e+00 4.700000e-01 0.000000e+00
1.153846e+00 4.221195e-01 0.000000e+00
1.153720e+00 4.700000e-01 0.000000e+00
1.153846e+00 4.221195e-01 0.000000e+00
1.153720e+00 4.700000e-01 0.000000e+00
1.235256e+00 4.226113e-01 0.000000e+00
1.235235e+00 4.700000e-01 0.000000e+00
1.235256e+00 4.226113e-01 0.000000e+00
1.235235e+00 4.700000e-01 0.000000e+00
1.316397e+00 4.231232e-01 0.000000e+00
1.316584e+00 4.700000e-01 0.000000e+00
1.316397e+00 4.231232e-01 0.000000e+00
1.316584e+00 4.700000e-01 0.000000e+00
1.397212e+00 4.236476e-01 0.000000e+00
1.397795e+00 4.700000e-01 0.000000e+00
1.397212e+00 4.236476e-01 0.000000e+00
1.397795e+00 4.700000e-01 0.000000e+00
1.477615e+00 4.241736e-01 0.000000e+00
1.478940e+00 4.700000e-01 0.000000e+00
1.477615e+00 4.241736e-01 0.000000e+00
1.478940e+00 4.700000e-01 0.000000e+00
1.557465e+00 4.246915e-01 0.000000e+00
1.560179e+00 4.700000e-01 0.000000e+00
1.557465e+00 4.246915e-01 0.000000e+00
1.560179e+00 4.700000e-01 0.000000e+00
1.636506e+00 4.252160e-01 0.000000e+00
1.641823e+00 4.700000e-01 0.000000e+00
1.636506e+00 4.252160e-01 0.000000e+00
1.641823e+00 4.700000e-01 0.000000e+00
1.714226e+00 4.258499e-01 0.000000e+00
1.724421e+00 4.700000e-01 0.000000e+00
1.714226e+00 4.258499e-01 0.000000e+00
1.724421e+00 4.700000e-01 0.000000e+00
1.790308e+00 4.253724e-01 0.000000e+00
1.805168e+00 4.682240e-01 0.000000e+00
1.790308e+00 4.253724e-01 0.000000e+00
1.805168e+00 4.682240e-01 0.000000e+00
1.863130e+00 4.086180e-01 0.000000e+00
1.882188e+00 4.481681e-01 0.000000e+00
1.863130e+00 4.086180e-01 0.000000e+00
1.882188e+00 4.481681e-01 0.000000e+00
1.928899e+00 3.754220e-01 0.000000e+00
1.953228e+00 4.110587e-01 0.000000e+00
1.928899e+00 3.754220e-01 0.000000e+00
1.953228e+00 4.110587e-01 0.000000e+00
1.985829e+00 3.296961e-01 0.000000e+00
2.015270e+00 3.604294e-01 0.000000e+00
1.985829e+00 3.296961e-01 0.000000e+00
2.015270e+00 3.604294e-01 0.000000e+00
2.033053e+00 2.743292e-01 0.000000e+00
2.066816e+00 2.994239e-01 0.000000e+00
2.033053e+00 2.743292e-01 0.000000e+00
2.066816e+00 2.994239e-01 0.000000e+00
2.070101e+00 2.117109e-01 0.000000e+00
2.107182e+00 2.307413e-01 0.000000e+00
2.070101e+00 2.117109e-01 0.000000e+00
2.107182e+00 2.307413e-01 0.000000e+00
2.096701e+00 1.439084e-01 0.000000e+00
2.136089e+00 1.566648e-01 0.000000e+00
2.096701e+00 1.439084e-01 0.000000e+00
2.136089e+00 1.566648e-01 0.000000e+00
2.112704e+00 7.276998e-02 0.000000e+00
2.153444e+00 7.916327e-02 0.000000e+00
2.112704e+00 7.276998e-02 0.000000e+00
2.153444e+00 7.916327e-02 0.000000e+00
2.118045e+00 1.037120e-11 0.000000e+00
2.159229e+00 1.057285e-11 0.000000e+00
</DataArray>
</Points>
<Cells>
<DataArray type="Int32" Name="connectivity" format="ascii">
0 1 3 2
4 5 7 6
8 9 11 10
12 13 15 14
16 17 19 18
20 21 23 22
24 25 27 26
28 29 31 30
32 33 35 34
36 37 39 38
40 41 43 42
44 45 47 46
48 49 51 50
52 53 55 54
56 57 59 58
60 61 63 62
64 65 67 66
68 69 71 70
72 73 75 74
76 77 79 78
80 81 83 82
84 85 87 86
88 89 91 90
92 93 95 94
96 97 99 98
100 101 103 102
104 105 107 106
108 109 111 110
112 113 115 114
116 117 119 118
</DataArray>
<DataArray type="Int32" Name="offsets" format="ascii">
4
8
12
16
20
24
28
32
36
40
44
48
52
56
60
64
68
72
76
80
84
88
92
96
100
104
108
112
116
120
</DataArray>
<DataArray type="UInt8" Name="types" format="ascii">
9
9
9
9
9
9
9
9
9
9
9
9
9
9
9
9
9
9
9
9
9
9
9
9
9
9
9
9
9
9
</DataArray>
</Cells>
<PointData>
<DataArray type="Float32" Name="V1" format="ascii">
2.329208e+02
1.189434e+01
2.331555e+02
1.212901e+01
2.335181e+02
1.189186e+01
2.341907e+02
1.256451e+01
2.349228e+02
1.208541e+01
2.360576e+02
1.322025e+01
2.371639e+02
1.249311e+01
2.387717e+02
1.410095e+01
2.402645e+02
1.311864e+01
2.423643e+02
1.521843e+01
2.442598e+02
1.396985e+01
2.468769e+02
1.658692e+01
2.491957e+02
1.505785e+01
2.523622e+02
1.822440e+01
2.551298e+02
1.639725e+01
2.588858e+02
2.015332e+01
2.621326e+02
1.800683e+01
2.665273e+02
2.240155e+01
2.702888e+02
1.991050e+01
2.753820e+02
2.500372e+01
2.796982e+02
2.213886e+01
2.855627e+02
2.800339e+01
2.904762e+02
2.473162e+01
2.972010e+02
3.145642e+01
3.027536e+02
2.774176e+01
3.104484e+02
3.543653e+01
3.166725e+02
3.124270e+01
3.254747e+02
4.004499e+01
3.323761e+02
3.534117e+01
3.424625e+02
4.542755e+01
3.499866e+02
4.020113e+01
3.615907e+02
5.180520e+01
3.695574e+02
4.608997e+01
3.829972e+02
5.952973e+01
3.909775e+02
5.347352e+01
4.066876e+02
6.918360e+01
4.137887e+02
6.322699e+01
4.323157e+02
8.175399e+01
4.368393e+02
7.713639e+01
4.586377e+02
9.893479e+01
4.576278e+02
9.906785e+01
4.822272e+02
1.236673e+02
4.652129e+02
1.407412e+02
4.998162e+02
1.753444e+02
4.872019e+02
1.836148e+02
5.171156e+02
2.135285e+02
5.203638e+02
2.111110e+02
5.487310e+02
2.394782e+02
5.595898e+02
2.326826e+02
5.859736e+02
2.590664e+02
5.993036e+02
2.502069e+02
6.226655e+02
2.735689e+02
6.354999e+02
2.645911e+02
6.547623e+02
2.838535e+02
6.653924e+02
2.761659e+02
6.797056e+02
2.904791e+02
6.871892e+02
2.849605e+02
6.959861e+02
2.937575e+02
6.998328e+02
2.908925e+02
7.027984e+02
2.938581e+02
</DataArray>
<DataArray type="Float32" Name="V2" format="ascii">
4.185400e-01
4.700000e-01
4.223403e-01
4.736888e-01
4.223403e-01
4.736888e-01
4.336550e-01
4.847321e-01
4.336550e-01
4.847321e-01
4.524336e-01
5.030606e-01
4.524336e-01
5.030606e-01
4.785586e-01
5.285592e-01
4.785586e-01
5.285592e-01
5.118653e-01
5.610674e-01
5.118653e-01
5.610674e-01
5.521433e-01
6.003798e-01
5.521433e-01
6.003798e-01
5.991372e-01
6.462471e-01
5.991372e-01
6.462471e-01
6.525477e-01
6.983771e-01
6.525477e-01
6.983771e-01
7.120324e-01
7.564359e-01
7.120324e-01
7.564359e-01
7.772077e-01
8.200493e-01
7.772077e-01
8.200493e-01
8.476499e-01
8.888046e-01
8.476499e-01
8.888046e-01
9.228966e-01
9.622529e-01
9.228966e-01
9.622529e-01
1.002448e+00
1.039911e+00
1.002448e+00
1.039911e+00
1.085770e+00
1.121267e+00
1.085770e+00
1.121267e+00
1.172289e+00
1.205783e+00
1.172289e+00
1.205783e+00
1.261398e+00
1.292904e+00
1.261398e+00
1.292904e+00
1.352448e+00
1.382071e+00
1.352448e+00
1.382071e+00
1.444739e+00
1.472747e+00
1.444739e+00
1.472747e+00
1.537503e+00
1.564457e+00
1.537503e+00
1.564457e+00
1.629864e+00
1.656860e+00
1.629864e+00
1.656860e+00
1.720718e+00
1.749846e+00
1.720718e+00
1.749846e+00
1.808542e+00
1.839547e+00
1.808542e+00
1.839547e+00
1.885817e+00
1.917783e+00
1.885817e+00
1.917783e+00
1.950504e+00
1.984654e+00
1.950504e+00
1.984654e+00
2.003495e+00
2.039888e+00
2.003495e+00
2.039888e+00
2.045663e+00
2.083905e+00
2.045663e+00
2.083905e+00
2.077734e+00
2.117335e+00
2.077734e+00
2.117335e+00
2.100257e+00
2.140763e+00
2.100257e+00
2.140763e+00
2.113617e+00
2.154636e+00
2.113617e+00
2.154636e+00
2.118045e+00
2.159229e+00
</DataArray>
<DataArray type="Float32" Name="V3" format="ascii">
0.000000e+00
0.000000e+00
6.078924e-02
5.807848e-02
6.078924e-02
5.807848e-02
1.209433e-01
1.155345e-01
1.209433e-01
1.155345e-01
1.798262e-01
1.717466e-01
1.798262e-01
1.717466e-01
2.368106e-01
2.261005e-01
2.368106e-01
2.261005e-01
2.912788e-01
2.779915e-01
2.912788e-01
2.779915e-01
3.426257e-01
3.268271e-01
3.426257e-01
3.268271e-01
3.902620e-01
3.720300e-01
3.902620e-01
3.720300e-01
4.336174e-01
4.130418e-01
4.336174e-01
4.130418e-01
4.721435e-01
4.493251e-01
4.721435e-01
4.493251e-01
5.053164e-01
4.803670e-01
5.053164e-01
4.803670e-01
5.326401e-01
5.056822e-01
5.326401e-01
5.056822e-01
5.536486e-01
5.248157e-01
5.536486e-01
5.248157e-01
5.679085e-01
5.373462e-01
5.679085e-01
5.373462e-01
5.750216e-01
5.428896e-01
5.750216e-01
5.428896e-01
5.746263e-01
5.411027e-01
5.746263e-01
5.411027e-01
5.663996e-01
5.316883e-01
5.663996e-01
5.316883e-01
5.500581e-01
5.144021e-01
5.500581e-01
5.144021e-01
5.253567e-01
4.890613e-01
5.253567e-01
4.890613e-01
4.920799e-01
4.555594e-01
4.920799e-01
4.555594e-01
4.500053e-01
4.138793e-01
4.500053e-01
4.138793e-01
3.988072e-01
3.640977e-01
3.988072e-01
3.640977e-01
3.395867e-01
3.064842e-01
3.395867e-01
3.064842e-01
2.862083e-01
2.561148e-01
2.862083e-01
2.561148e-01
2.390151e-01
2.126405e-01
2.390151e-01
2.126405e-01
1.955083e-01
1.734423e-01
1.955083e-01
1.734423e-01
1.543611e-01
1.368345e-01
1.543611e-01
1.368345e-01
1.147308e-01
1.017354e-01
1.147308e-01
1.017354e-01
7.604485e-02
6.747553e-02
7.604485e-02
6.747553e-02
3.790014e-02
3.364776e-02
3.790014e-02
3.364776e-02
0.000000e+00
0.000000e+00
</DataArray>
<DataArray type="Float32" Name="V4" format="ascii">
8.500000e-01
1.000000e+00
8.500000e-01
1.000000e+00
8.500000e-01
1.000000e+00
8.500000e-01
1.000000e+00
8.500000e-01
1.000000e+00
8.500000e-01
1.000000e+00
8.500000e-01
1.000000e+00
8.500000e-01
1.000000e+00
8.500000e-01
1.000000e+00
8.500000e-01
1.000000e+00
8.500000e-01
1.000000e+00
8.500000e-01
1.000000e+00
8.500000e-01
1.000000e+00
8.500000e-01
1.000000e+00
8.500000e-01
1.000000e+00
8.500000e-01
1.000000e+00
8.500000e-01
1.000000e+00
8.500000e-01
1.000000e+00
8.500000e-01
1.000000e+00
8.500000e-01
1.000000e+00
8.500000e-01
1.000000e+00
8.500000e-01
1.000000e+00
8.500000e-01
1.000000e+00
8.500000e-01
1.000000e+00
8.500000e-01
1.000000e+00
8.500000e-01
1.000000e+00
8.500000e-01
1.000000e+00
8.500000e-01
1.000000e+00
8.500000e-01
1.000000e+00
8.500000e-01
1.000000e+00
8.500000e-01
1.000000e+00
8.500000e-01
1.000000e+00
8.500000e-01
1.000000e+00
8.500000e-01
1.000000e+00
8.500000e-01
1.000000e+00
8.500000e-01
1.000000e+00
8.500000e-01
1.000000e+00
8.500000e-01
1.000000e+00
8.500000e-01
1.000000e+00
8.500000e-01
1.000000e+00
8.500000e-01
1.000000e+00
8.500000e-01
1.000000e+00
8.500000e-01
1.000000e+00
8.500000e-01
1.000000e+00
8.500000e-01
1.000000e+00
8.500000e-01
1.000000e+00
8.500000e-01
1.000000e+00
8.500000e-01
1.000000e+00
8.500000e-01
1.000000e+00
8.500000e-01
1.000000e+00
8.500000e-01
1.000000e+00
8.500000e-01
1.000000e+00
8.500000e-01
1.000000e+00
8.500000e-01
1.000000e+00
8.500000e-01
1.000000e+00
8.500000e-01
1.000000e+00
8.500000e-01
1.000000e+00
8.500000e-01
1.000000e+00
8.500000e-01
1.000000e+00
8.500000e-01
1.000000e+00
</DataArray>
<DataArray type="Float32" Name="V5" format="ascii">
0.000000e+00
0.000000e+00
5.235988e-02
5.235988e-02
5.235988e-02
5.235988e-02
1.047198e-01
1.047198e-01
1.047198e-01
1.047198e-01
1.570796e-01
1.570796e-01
1.570796e-01
1.570796e-01
2.094395e-01
2.094395e-01
2.094395e-01
2.094395e-01
2.617994e-01
2.617994e-01
2.617994e-01
2.617994e-01
3.141593e-01
3.141593e-01
3.141593e-01
3.141593e-01
3.665191e-01
3.665191e-01
3.665191e-01
3.665191e-01
4.188790e-01
4.188790e-01
4.188790e-01
4.188790e-01
4.712389e-01
4.712389e-01
4.712389e-01
4.712389e-01
5.235988e-01
5.235988e-01
5.235988e-01
5.235988e-01
5.759587e-01
5.759587e-01
5.759587e-01
5.759587e-01
6.283185e-01
6.283185e-01
6.283185e-01
6.283185e-01
6.806784e-01
6.806784e-01
6.806784e-01
6.806784e-01
7.330383e-01
7.330383e-01
7.330383e-01
7.330383e-01
7.853982e-01
7.853982e-01
7.853982e-01
7.853982e-01
8.377580e-01
8.377580e-01
8.377580e-01
8.377580e-01
8.901179e-01
8.901179e-01
8.901179e-01
8.901179e-01
9.424778e-01
9.424778e-01
9.424778e-01
9.424778e-01
9.948377e-01
9.948377e-01
9.948377e-01
9.948377e-01
1.047198e+00
1.047198e+00
1.047198e+00
1.047198e+00
1.099557e+00
1.099557e+00
1.099557e+00
1.099557e+00
1.151917e+00
1.151917e+00
1.151917e+00
1.151917e+00
1.204277e+00
1.204277e+00
1.204277e+00
1.204277e+00
1.256637e+00
1.256637e+00
1.256637e+00
1.256637e+00
1.308997e+00
1.308997e+00
1.308997e+00
1.308997e+00
1.361357e+00
1.361357e+00
1.361357e+00
1.361357e+00
1.413717e+00
1.413717e+00
1.413717e+00
1.413717e+00
1.466077e+00
1.466077e+00
1.466077e+00
1.466077e+00
1.518436e+00
1.518436e+00
1.518436e+00
1.518436e+00
1.570796e+00
1.570796e+00
</DataArray>
</PointData>
</Piece></UnstructuredGrid>
</VTKFile>
