<?xml version="1.0"?>
<VTKFile type="UnstructuredGrid" version="0.1" byte_order="LittleEndian" compressor="vtkZLibDataCompressor">
<UnstructuredGrid>
<Piece NumberOfPoints="120" NumberOfCells="30">
<Points>
<DataArray type="Float32" NumberOfComponents="3" format="ascii">
0.000000e+00 6.979604e-01 0.000000e+00
0.000000e+00 8.000000e-01 0.000000e+00
5.885336e-02 6.980162e-01 0.000000e+00
5.875108e-02 8.000000e-01 0.000000e+00
5.885336e-02 6.980162e-01 0.000000e+00
5.875108e-02 8.000000e-01 0.000000e+00
1.177071e-01 6.981584e-01 0.000000e+00
1.175037e-01 8.000000e-01 0.000000e+00
1.177071e-01 6.981584e-01 0.000000e+00
1.175037e-01 8.000000e-01 0.000000e+00
1.765587e-01 6.983965e-01 0.000000e+00
1.762618e-01 8.000000e-01 0.000000e+00
1.765587e-01 6.983965e-01 0.000000e+00
1.762618e-01 8.000000e-01 0.000000e+00
2.354051e-01 6.987320e-01 0.000000e+00
2.350323e-01 8.000000e-01 0.000000e+00
2.354051e-01 6.987320e-01 0.000000e+00
2.350323e-01 8.000000e-01 0.000000e+00
2.942390e-01 6.991687e-01 0.000000e+00
2.938303e-01 8.000000e-01 0.000000e+00
2.942390e-01 6.991687e-01 0.000000e+00
2.938303e-01 8.000000e-01 0.000000e+00
3.530440e-01 6.997137e-01 0.000000e+00
3.526877e-01 8.000000e-01 0.000000e+00
3.530440e-01 6.997137e-01 0.000000e+00
3.526877e-01 8.000000e-01 0.000000e+00
4.117843e-01 7.003782e-01 0.000000e+00
4.116678e-01 8.000000e-01 0.000000e+00
4.117843e-01 7.003782e-01 0.000000e+00
4.116678e-01 8.000000e-01 0.000000e+00
4.703842e-01 7.011743e-01 0.000000e+00
4.708884e-01 8.000000e-01 0.000000e+00
4.703842e-01 7.011743e-01 0.000000e+00
4.708884e-01 8.000000e-01 0.000000e+00
5.286880e-01 7.020973e-01 0.000000e+00
5.305483e-01 8.000000e-01 0.000000e+00
5.286880e-01 7.020973e-01 0.000000e+00
5.305483e-01 8.000000e-01 0.000000e+00
5.863884e-01 7.030622e-01 0.000000e+00
5.909221e-01 8.000000e-01 0.000000e+00
5.863884e-01 7.030622e-01 0.000000e+00
5.909221e-01 8.000000e-01 0.000000e+00
6.429181e-01 7.036379e-01 0.000000e+00
6.522169e-01 8.000000e-01 0.000000e+00
6.429181e-01 7.036379e-01 0.000000e+00
6.522169e-01 8.000000e-01 0.000000e+00
6.980982e-01 7.033199e-01 0.000000e+00
7.135055e-01 8.000000e-01 0.000000e+00
6.980982e-01 7.033199e-01 0.000000e+00
7.135055e-01 8.000000e-01 0.000000e+00
7.520615e-01 6.977531e-01 0.000000e+00
7.737228e-01 7.925241e-01 0.000000e+00
7.520615e-01 6.977531e-01 0.000000e+00
7.737228e-01 7.925241e-01 0.000000e+00
8.038384e-01 6.863255e-01 0.000000e+00
8.333806e-01 7.776716e-01 0.000000e+00
8.038384e-01 6.863255e-01 0.000000e+00
8.333806e-01 7.776716e-01 0.000000e+00
8.536678e-01 6.689437e-01 0.000000e+00
8.914315e-01 7.560615e-01 0.000000e+00
8.536678e-01 6.689437e-01 0.000000e+00
8.914315e-01 7.560615e-01 0.000000e+00
9.013572e-01 6.461002e-01 0.000000e+00
9.469587e-01 7.283223e-01 0.000000e+00
9.013572e-01 6.461002e-01 0.000000e+00
9.469587e-01 7.283223e-01 0.000000e+00
9.466448e-01 6.182968e-01 0.000000e+00
9.993761e-01 6.951463e-01 0.000000e+00
9.466448e-01 6.182968e-01 0.000000e+00
9.993761e-01 6.951463e-01 0.000000e+00
9.892820e-01 5.860401e-01 0.000000e+00
1.048338e+00 6.572108e-01 0.000000e+00
9.892820e-01 5.860401e-01 0.000000e+00
1.048338e+00 6.572108e-01 0.000000e+00
1.029054e+00 5.498158e-01 0.000000e+00
1.093641e+00 6.151299e-01 0.000000e+00
1.029054e+00 5.498158e-01 0.000000e+00
1.093641e+00 6.151299e-01 0.000000e+00
1.065786e+00 5.100803e-01 0.000000e+00
1.135167e+00 5.694464e-01 0.000000e+00
1.065786e+00 5.100803e-01 0.000000e+00
1.135167e+00 5.694464e-01 0.000000e+00
1.099335e+00 4.672575e-01 0.000000e+00
1.172844e+00 5.206382e-01 0.000000e+00
1.099335e+00 4.672575e-01 0.000000e+00
1.172844e+00 5.206382e-01 0.000000e+00
1.129588e+00 4.217395e-01 0.000000e+00
1.206628e+00 4.691288e-01 0.000000e+00
1.129588e+00 4.217395e-01 0.000000e+00
1.206628e+00 4.691288e-01 0.000000e+00
1.156456e+00 3.738898e-01 0.000000e+00
1.236490e+00 4.152983e-01 0.000000e+00
1.156456e+00 3.738898e-01 0.000000e+00
1.236490e+00 4.152983e-01 0.000000e+00
1.179867e+00 3.240471e-01 0.000000e+00
1.262408e+00 3.594927e-01 0.000000e+00
1.179867e+00 3.240471e-01 0.000000e+00
1.262408e+00 3.594927e-01 0.000000e+00
1.199763e+00 2.725300e-01 0.000000e+00
1.284366e+00 3.020325e-01 0.000000e+00
1.199763e+00 2.725300e-01 0.000000e+00
1.284366e+00 3.020325e-01 0.000000e+00
1.216098e+00 2.196401e-01 0.000000e+00
1.302350e+00 2.432182e-01 0.000000e+00
1.216098e+00 2.196401e-01 0.000000e+00
1.302350e+00 2.432182e-01 0.000000e+00
1.228839e+00 1.656664e-01 0.000000e+00
1.316349e+00 1.833357e-01 0.000000e+00
1.228839e+00 1.656664e-01 0.000000e+00
1.316349e+00 1.833357e-01 0.000000e+00
1.237957e+00 1.108879e-01 0.000000e+00
1.326355e+00 1.226606e-01 0.000000e+00
1.237957e+00 1.108879e-01 0.000000e+00
1.326355e+00 1.226606e-01 0.000000e+00
1.243435e+00 5.557657e-02 0.000000e+00
1.332361e+00 6.146091e-02 0.000000e+00
1.243435e+00 5.557657e-02 0.000000e+00
1.332361e+00 6.146091e-02 0.000000e+00
1.245263e+00 6.097540e-12 0.000000e+00
1.334364e+00 6.533830e-12 0.000000e+00
</DataArray>
</Points>
<Cells>
<DataArray type="Int32" Name="connectivity" format="ascii">
0 1 3 2
4 5 7 6
8 9 11 10
12 13 15 14
16 17 19 18
20 21 23 22
24 25 27 26
28 29 31 30
32 33 35 34
36 37 39 38
40 41 43 42
44 45 47 46
48 49 51 50
52 53 55 54
56 57 59 58
60 61 63 62
64 65 67 66
68 69 71 70
72 73 75 74
76 77 79 78
80 81 83 82
84 85 87 86
88 89 91 90
92 93 95 94
96 97 99 98
100 101 103 102
104 105 107 106
108 109 111 110
112 113 115 114
116 117 119 118
</DataArray>
<DataArray type="Int32" Name="offsets" format="ascii">
4
8
12
16
20
24
28
32
36
40
44
48
52
56
60
64
68
72
76
80
84
88
92
96
100
104
108
112
116
120
</DataArray>
<DataArray type="UInt8" Name="types" format="ascii">
9
9
9
9
9
9
9
9
9
9
9
9
9
9
9
9
9
9
9
9
9
9
9
9
9
9
9
9
9
9
</DataArray>
</Cells>
<PointData>
<DataArray type="Float32" Name="V1" format="ascii">
1.604761e+01
-2.974483e-01
1.607139e+01
-2.736718e-01
1.609934e+01
-2.936456e-01
1.616203e+01
-2.309499e-01
1.621978e+01
-2.709235e-01
1.632556e+01
-1.651434e-01
1.641080e+01
-2.250607e-01
1.656042e+01
-7.544077e-02
1.667046e+01
-1.535661e-01
1.686507e+01
4.105076e-02
1.699207e+01
-5.026690e-02
1.723362e+01
1.912860e-01
1.735798e+01
9.938063e-02
1.765024e+01
3.916374e-01
1.772722e+01
3.284309e-01
1.807863e+01
6.798401e-01
1.801347e+01
7.096980e-01
1.844434e+01
1.140561e+00
1.804977e+01
1.399870e+00
1.861040e+01
1.960505e+00
1.754707e+01
2.710598e+00
1.840033e+01
3.563851e+00
1.599536e+01
5.528639e+00
1.746815e+01
7.001430e+00
1.487801e+01
9.380086e+00
1.584967e+01
1.035174e+01
1.478039e+01
1.105148e+01
1.546794e+01
1.173903e+01
1.511087e+01
1.203510e+01
1.578124e+01
1.270547e+01
1.577185e+01
1.272001e+01
1.641658e+01
1.336474e+01
1.658409e+01
1.322735e+01
1.718628e+01
1.382954e+01
1.743984e+01
1.361922e+01
1.798995e+01
1.416933e+01
1.827689e+01
1.393251e+01
1.877117e+01
1.442680e+01
1.906129e+01
1.418955e+01
1.949969e+01
1.462795e+01
1.977594e+01
1.440428e+01
2.016040e+01
1.478874e+01
2.041361e+01
1.458567e+01
2.074699e+01
1.491906e+01
2.097262e+01
1.473965e+01
2.125812e+01
1.502514e+01
2.145432e+01
1.487027e+01
2.169502e+01
1.511097e+01
2.186143e+01
1.498043e+01
2.206017e+01
1.517917e+01
2.219718e+01
1.507223e+01
2.235641e+01
1.523145e+01
2.246475e+01
1.514723e+01
2.258649e+01
1.526896e+01
2.266693e+01
1.520662e+01
2.275276e+01
1.529245e+01
2.280598e+01
1.525129e+01
2.285702e+01
1.530234e+01
2.288351e+01
1.528188e+01
2.290045e+01
1.529883e+01
</DataArray>
<DataArray type="Float32" Name="V2" format="ascii">
6.979604e-01
8.000000e-01
7.001397e-01
8.019784e-01
7.001397e-01
8.019784e-01
7.066375e-01
8.079000e-01
7.066375e-01
8.079000e-01
7.174179e-01
8.177241e-01
7.174179e-01
8.177241e-01
7.324065e-01
8.313840e-01
7.324065e-01
8.313840e-01
7.514998e-01
8.487895e-01
7.514998e-01
8.487895e-01
7.745639e-01
8.698317e-01
7.745639e-01
8.698317e-01
8.014296e-01
8.943929e-01
8.014296e-01
8.943929e-01
8.318771e-01
9.223639e-01
8.318771e-01
9.223639e-01
8.655926e-01
9.536691e-01
8.655926e-01
9.536691e-01
9.020639e-01
9.882814e-01
9.020639e-01
9.882814e-01
9.402787e-01
1.026159e+00
9.402787e-01
1.026159e+00
9.793296e-01
1.066602e+00
9.793296e-01
1.066602e+00
1.015544e+00
1.102826e+00
1.015544e+00
1.102826e+00
1.047912e+00
1.135563e+00
1.047912e+00
1.135563e+00
1.076649e+00
1.164953e+00
1.076649e+00
1.164953e+00
1.102164e+00
1.191070e+00
1.102164e+00
1.191070e+00
1.124788e+00
1.214131e+00
1.124788e+00
1.214131e+00
1.144812e+00
1.234422e+00
1.144812e+00
1.234422e+00
1.162489e+00
1.252228e+00
1.162489e+00
1.252228e+00
1.178038e+00
1.267806e+00
1.178038e+00
1.267806e+00
1.191645e+00
1.281376e+00
1.191645e+00
1.281376e+00
1.203467e+00
1.293121e+00
1.203467e+00
1.293121e+00
1.213635e+00
1.303192e+00
1.213635e+00
1.303192e+00
1.222256e+00
1.311711e+00
1.222256e+00
1.311711e+00
1.229418e+00
1.318774e+00
1.229418e+00
1.318774e+00
1.235190e+00
1.324458e+00
1.235190e+00
1.324458e+00
1.239626e+00
1.328823e+00
1.239626e+00
1.328823e+00
1.242766e+00
1.331911e+00
1.242766e+00
1.331911e+00
1.244640e+00
1.333752e+00
1.244640e+00
1.333752e+00
1.245263e+00
1.334364e+00
</DataArray>
<DataArray type="Float32" Name="V3" format="ascii">
0.000000e+00
0.000000e+00
2.224136e-02
1.680180e-02
2.224136e-02
1.680180e-02
4.408487e-02
3.323719e-02
4.408487e-02
3.323719e-02
6.513165e-02
4.894415e-02
6.513165e-02
4.894415e-02
8.498635e-02
6.356692e-02
8.498635e-02
6.356692e-02
1.032549e-01
7.676307e-02
1.032549e-01
7.676307e-02
1.195414e-01
8.821235e-02
1.195414e-01
8.821235e-02
1.334406e-01
9.763060e-02
1.334406e-01
9.763060e-02
1.445240e-01
1.047886e-01
1.445240e-01
1.047886e-01
1.523190e-01
1.095296e-01
1.523190e-01
1.095296e-01
1.562962e-01
1.117536e-01
1.562962e-01
1.117536e-01
1.559678e-01
1.112839e-01
1.559678e-01
1.112839e-01
1.513722e-01
1.070099e-01
1.513722e-01
1.070099e-01
1.453513e-01
1.025439e-01
1.453513e-01
1.025439e-01
1.381270e-01
9.895858e-02
1.381270e-01
9.895858e-02
1.306196e-01
9.572108e-02
1.306196e-01
9.572108e-02
1.229797e-01
9.239007e-02
1.229797e-01
9.239007e-02
1.152360e-01
8.869764e-02
1.152360e-01
8.869764e-02
1.073689e-01
8.450281e-02
1.073689e-01
8.450281e-02
9.934885e-02
7.974824e-02
9.934885e-02
7.974824e-02
9.115042e-02
7.442827e-02
9.115042e-02
7.442827e-02
8.275810e-02
6.856789e-02
8.275810e-02
6.856789e-02
7.416679e-02
6.220935e-02
7.416679e-02
6.220935e-02
6.538074e-02
5.540405e-02
6.538074e-02
5.540405e-02
5.641181e-02
4.820765e-02
5.641181e-02
4.820765e-02
4.727772e-02
4.067737e-02
4.727772e-02
4.067737e-02
3.800065e-02
3.287052e-02
3.800065e-02
3.287052e-02
2.860598e-02
2.484382e-02
2.860598e-02
2.484382e-02
1.912135e-02
1.665317e-02
1.912135e-02
1.665317e-02
9.575975e-03
8.353710e-03
9.575975e-03
8.353710e-03
0.000000e+00
0.000000e+00
</DataArray>
<DataArray type="Float32" Name="V4" format="ascii">
8.500000e-01
1.000000e+00
8.500000e-01
1.000000e+00
8.500000e-01
1.000000e+00
8.500000e-01
1.000000e+00
8.500000e-01
1.000000e+00
8.500000e-01
1.000000e+00
8.500000e-01
1.000000e+00
8.500000e-01
1.000000e+00
8.500000e-01
1.000000e+00
8.500000e-01
1.000000e+00
8.500000e-01
1.000000e+00
8.500000e-01
1.000000e+00
8.500000e-01
1.000000e+00
8.500000e-01
1.000000e+00
8.500000e-01
1.000000e+00
8.500000e-01
1.000000e+00
8.500000e-01
1.000000e+00
8.500000e-01
1.000000e+00
8.500000e-01
1.000000e+00
8.500000e-01
1.000000e+00
8.500000e-01
1.000000e+00
8.500000e-01
1.000000e+00
8.500000e-01
1.000000e+00
8.500000e-01
1.000000e+00
8.500000e-01
1.000000e+00
8.500000e-01
1.000000e+00
8.500000e-01
1.000000e+00
8.500000e-01
1.000000e+00
8.500000e-01
1.000000e+00
8.500000e-01
1.000000e+00
8.500000e-01
1.000000e+00
8.500000e-01
1.000000e+00
8.500000e-01
1.000000e+00
8.500000e-01
1.000000e+00
8.500000e-01
1.000000e+00
8.500000e-01
1.000000e+00
8.500000e-01
1.000000e+00
8.500000e-01
1.000000e+00
8.500000e-01
1.000000e+00
8.500000e-01
1.000000e+00
8.500000e-01
1.000000e+00
8.500000e-01
1.000000e+00
8.500000e-01
1.000000e+00
8.500000e-01
1.000000e+00
8.500000e-01
1.000000e+00
8.500000e-01
1.000000e+00
8.500000e-01
1.000000e+00
8.500000e-01
1.000000e+00
8.500000e-01
1.000000e+00
8.500000e-01
1.000000e+00
8.500000e-01
1.000000e+00
8.500000e-01
1.000000e+00
8.500000e-01
1.000000e+00
8.500000e-01
1.000000e+00
8.500000e-01
1.000000e+00
8.500000e-01
1.000000e+00
8.500000e-01
1.000000e+00
8.500000e-01
1.000000e+00
8.500000e-01
1.000000e+00
8.500000e-01
1.000000e+00
</DataArray>
<DataArray type="Float32" Name="V5" format="ascii">
0.000000e+00
0.000000e+00
5.235988e-02
5.235988e-02
5.235988e-02
5.235988e-02
1.047198e-01
1.047198e-01
1.047198e-01
1.047198e-01
1.570796e-01
1.570796e-01
1.570796e-01
1.570796e-01
2.094395e-01
2.094395e-01
2.094395e-01
2.094395e-01
2.617994e-01
2.617994e-01
2.617994e-01
2.617994e-01
3.141593e-01
3.141593e-01
3.141593e-01
3.141593e-01
3.665191e-01
3.665191e-01
3.665191e-01
3.665191e-01
4.188790e-01
4.188790e-01
4.188790e-01
4.188790e-01
4.712389e-01
4.712389e-01
4.712389e-01
4.712389e-01
5.235988e-01
5.235988e-01
5.235988e-01
5.235988e-01
5.759587e-01
5.759587e-01
5.759587e-01
5.759587e-01
6.283185e-01
6.283185e-01
6.283185e-01
6.283185e-01
6.806784e-01
6.806784e-01
6.806784e-01
6.806784e-01
7.330383e-01
7.330383e-01
7.330383e-01
7.330383e-01
7.853982e-01
7.853982e-01
7.853982e-01
7.853982e-01
8.377580e-01
8.377580e-01
8.377580e-01
8.377580e-01
8.901179e-01
8.901179e-01
8.901179e-01
8.901179e-01
9.424778e-01
9.424778e-01
9.424778e-01
9.424778e-01
9.948377e-01
9.948377e-01
9.948377e-01
9.948377e-01
1.047198e+00
1.047198e+00
1.047198e+00
1.047198e+00
1.099557e+00
1.099557e+00
1.099557e+00
1.099557e+00
1.151917e+00
1.151917e+00
1.151917e+00
1.151917e+00
1.204277e+00
1.204277e+00
1.204277e+00
1.204277e+00
1.256637e+00
1.256637e+00
1.256637e+00
1.256637e+00
1.308997e+00
1.308997e+00
1.308997e+00
1.308997e+00
1.361357e+00
1.361357e+00
1.361357e+00
1.361357e+00
1.413717e+00
1.413717e+00
1.413717e+00
1.413717e+00
1.466077e+00
1.466077e+00
1.466077e+00
1.466077e+00
1.518436e+00
1.518436e+00
1.518436e+00
1.518436e+00
1.570796e+00
1.570796e+00
</DataArray>
</PointData>
</Piece></UnstructuredGrid>
</VTKFile>
