<?xml version="1.0"?>
<VTKFile type="UnstructuredGrid" version="0.1" byte_order="LittleEndian" compressor="vtkZLibDataCompressor">
<UnstructuredGrid>
<Piece NumberOfPoints="120" NumberOfCells="30">
<Points>
<DataArray type="Float32" NumberOfComponents="3" format="ascii">
0.000000e+00 7.931908e-01 0.000000e+00
0.000000e+00 9.000000e-01 0.000000e+00
5.752049e-02 7.932538e-01 0.000000e+00
5.743743e-02 9.000000e-01 0.000000e+00
5.752049e-02 7.932538e-01 0.000000e+00
5.743743e-02 9.000000e-01 0.000000e+00
1.150358e-01 7.934221e-01 0.000000e+00
1.148931e-01 9.000000e-01 0.000000e+00
1.150358e-01 7.934221e-01 0.000000e+00
1.148931e-01 9.000000e-01 0.000000e+00
1.725324e-01 7.937108e-01 0.000000e+00
1.723977e-01 9.000000e-01 0.000000e+00
1.725324e-01 7.937108e-01 0.000000e+00
1.723977e-01 9.000000e-01 0.000000e+00
2.299827e-01 7.941324e-01 0.000000e+00
2.300060e-01 9.000000e-01 0.000000e+00
2.299827e-01 7.941324e-01 0.000000e+00
2.300060e-01 9.000000e-01 0.000000e+00
2.873241e-01 7.947007e-01 0.000000e+00
2.878187e-01 9.000000e-01 0.000000e+00
2.873241e-01 7.947007e-01 0.000000e+00
2.878187e-01 9.000000e-01 0.000000e+00
3.444251e-01 7.954143e-01 0.000000e+00
3.460042e-01 9.000000e-01 0.000000e+00
3.444251e-01 7.954143e-01 0.000000e+00
3.460042e-01 9.000000e-01 0.000000e+00
4.010248e-01 7.961999e-01 0.000000e+00
4.047972e-01 9.000000e-01 0.000000e+00
4.010248e-01 7.961999e-01 0.000000e+00
4.047972e-01 9.000000e-01 0.000000e+00
4.566483e-01 7.967090e-01 0.000000e+00
4.643971e-01 9.000000e-01 0.000000e+00
4.566483e-01 7.967090e-01 0.000000e+00
4.643971e-01 9.000000e-01 0.000000e+00
5.109419e-01 7.963388e-01 0.000000e+00
5.243570e-01 9.000000e-01 0.000000e+00
5.109419e-01 7.963388e-01 0.000000e+00
5.243570e-01 9.000000e-01 0.000000e+00
5.643553e-01 7.925286e-01 0.000000e+00
5.835773e-01 8.954698e-01 0.000000e+00
5.643553e-01 7.925286e-01 0.000000e+00
5.835773e-01 8.954698e-01 0.000000e+00
6.159190e-01 7.835271e-01 0.000000e+00
6.424560e-01 8.837352e-01 0.000000e+00
6.159190e-01 7.835271e-01 0.000000e+00
6.424560e-01 8.837352e-01 0.000000e+00
6.659857e-01 7.695114e-01 0.000000e+00
7.004642e-01 8.662742e-01 0.000000e+00
6.659857e-01 7.695114e-01 0.000000e+00
7.004642e-01 8.662742e-01 0.000000e+00
7.145016e-01 7.506378e-01 0.000000e+00
7.567542e-01 8.433606e-01 0.000000e+00
7.145016e-01 7.506378e-01 0.000000e+00
7.567542e-01 8.433606e-01 0.000000e+00
7.612793e-01 7.272895e-01 0.000000e+00
8.108019e-01 8.155034e-01 0.000000e+00
7.612793e-01 7.272895e-01 0.000000e+00
8.108019e-01 8.155034e-01 0.000000e+00
8.061060e-01 6.998306e-01 0.000000e+00
8.622656e-01 7.831992e-01 0.000000e+00
8.061060e-01 6.998306e-01 0.000000e+00
8.622656e-01 7.831992e-01 0.000000e+00
8.487815e-01 6.686230e-01 0.000000e+00
9.109254e-01 7.469127e-01 0.000000e+00
8.487815e-01 6.686230e-01 0.000000e+00
9.109254e-01 7.469127e-01 0.000000e+00
8.891272e-01 6.340117e-01 0.000000e+00
9.566315e-01 7.070613e-01 0.000000e+00
8.891272e-01 6.340117e-01 0.000000e+00
9.566315e-01 7.070613e-01 0.000000e+00
9.269882e-01 5.963214e-01 0.000000e+00
9.992756e-01 6.640181e-01 0.000000e+00
9.269882e-01 5.963214e-01 0.000000e+00
9.992756e-01 6.640181e-01 0.000000e+00
9.622315e-01 5.558559e-01 0.000000e+00
1.038773e+00 6.181181e-01 0.000000e+00
9.622315e-01 5.558559e-01 0.000000e+00
1.038773e+00 6.181181e-01 0.000000e+00
9.947429e-01 5.129001e-01 0.000000e+00
1.075055e+00 5.696655e-01 0.000000e+00
9.947429e-01 5.129001e-01 0.000000e+00
1.075055e+00 5.696655e-01 0.000000e+00
1.024424e+00 4.677217e-01 0.000000e+00
1.108062e+00 5.189405e-01 0.000000e+00
1.024424e+00 4.677217e-01 0.000000e+00
1.108062e+00 5.189405e-01 0.000000e+00
1.051191e+00 4.205743e-01 0.000000e+00
1.137739e+00 4.662049e-01 0.000000e+00
1.051191e+00 4.205743e-01 0.000000e+00
1.137739e+00 4.662049e-01 0.000000e+00
1.074970e+00 3.716999e-01 0.000000e+00
1.164041e+00 4.117064e-01 0.000000e+00
1.074970e+00 3.716999e-01 0.000000e+00
1.164041e+00 4.117064e-01 0.000000e+00
1.095699e+00 3.213310e-01 0.000000e+00
1.186924e+00 3.556822e-01 0.000000e+00
1.095699e+00 3.213310e-01 0.000000e+00
1.186924e+00 3.556822e-01 0.000000e+00
1.113326e+00 2.696927e-01 0.000000e+00
1.206352e+00 2.983615e-01 0.000000e+00
1.113326e+00 2.696927e-01 0.000000e+00
1.206352e+00 2.983615e-01 0.000000e+00
1.127807e+00 2.170041e-01 0.000000e+00
1.222292e+00 2.399676e-01 0.000000e+00
1.127807e+00 2.170041e-01 0.000000e+00
1.222292e+00 2.399676e-01 0.000000e+00
1.139107e+00 1.634801e-01 0.000000e+00
1.234718e+00 1.807196e-01 0.000000e+00
1.139107e+00 1.634801e-01 0.000000e+00
1.234718e+00 1.807196e-01 0.000000e+00
1.147197e+00 1.093322e-01 0.000000e+00
1.243608e+00 1.208333e-01 0.000000e+00
1.147197e+00 1.093322e-01 0.000000e+00
1.243608e+00 1.208333e-01 0.000000e+00
1.152059e+00 5.476962e-02 0.000000e+00
1.248949e+00 6.052257e-02 0.000000e+00
1.152059e+00 5.476962e-02 0.000000e+00
1.248949e+00 6.052257e-02 0.000000e+00
1.153681e+00 5.649100e-12 0.000000e+00
1.250730e+00 6.124310e-12 0.000000e+00
</DataArray>
</Points>
<Cells>
<DataArray type="Int32" Name="connectivity" format="ascii">
0 1 3 2
4 5 7 6
8 9 11 10
12 13 15 14
16 17 19 18
20 21 23 22
24 25 27 26
28 29 31 30
32 33 35 34
36 37 39 38
40 41 43 42
44 45 47 46
48 49 51 50
52 53 55 54
56 57 59 58
60 61 63 62
64 65 67 66
68 69 71 70
72 73 75 74
76 77 79 78
80 81 83 82
84 85 87 86
88 89 91 90
92 93 95 94
96 97 99 98
100 101 103 102
104 105 107 106
108 109 111 110
112 113 115 114
116 117 119 118
</DataArray>
<DataArray type="Int32" Name="offsets" format="ascii">
4
8
12
16
20
24
28
32
36
40
44
48
52
56
60
64
68
72
76
80
84
88
92
96
100
104
108
112
116
120
</DataArray>
<DataArray type="UInt8" Name="types" format="ascii">
9
9
9
9
9
9
9
9
9
9
9
9
9
9
9
9
9
9
9
9
9
9
9
9
9
9
9
9
9
9
</DataArray>
</Cells>
<PointData>
<DataArray type="Float32" Name="V1" format="ascii">
1.396786e+01
-1.772023e-01
1.398827e+01
-1.567851e-01
1.400543e+01
-1.698708e-01
1.405825e+01
-1.170480e-01
1.408943e+01
-1.396902e-01
1.417796e+01
-5.115873e-02
1.420786e+01
-7.447663e-02
1.433274e+01
5.040886e-02
1.432941e+01
4.808695e-02
1.449417e+01
2.128532e-01
1.438980e+01
2.786796e-01
1.460674e+01
4.956170e-01
1.426766e+01
7.274681e-01
1.457260e+01
1.032416e+00
1.375966e+01
1.614323e+00
1.426607e+01
2.120733e+00
1.254050e+01
3.488690e+00
1.348553e+01
4.433719e+00
1.120167e+01
6.604311e+00
1.205735e+01
7.459989e+00
1.091829e+01
8.191730e+00
1.132344e+01
8.596882e+00
1.091311e+01
8.939565e+00
1.130811e+01
9.334559e+00
1.117310e+01
9.451832e+00
1.155048e+01
9.829209e+00
1.157238e+01
9.813191e+00
1.192306e+01
1.016388e+01
1.202308e+01
1.008089e+01
1.234201e+01
1.039981e+01
1.247819e+01
1.028675e+01
1.276416e+01
1.057273e+01
1.291231e+01
1.045051e+01
1.316624e+01
1.070443e+01
1.331303e+01
1.058431e+01
1.353689e+01
1.080816e+01
1.367521e+01
1.069587e+01
1.387139e+01
1.089205e+01
1.399775e+01
1.079020e+01
1.416870e+01
1.096115e+01
1.428172e+01
1.087065e+01
1.442973e+01
1.101867e+01
1.452913e+01
1.093952e+01
1.465631e+01
1.106670e+01
1.474241e+01
1.099847e+01
1.485059e+01
1.110665e+01
1.492399e+01
1.104871e+01
1.501475e+01
1.113947e+01
1.507614e+01
1.109118e+01
1.515080e+01
1.116584e+01
1.520084e+01
1.112658e+01
1.526050e+01
1.118624e+01
1.529978e+01
1.115548e+01
1.534531e+01
1.120100e+01
1.537433e+01
1.117832e+01
1.540639e+01
1.121037e+01
1.542553e+01
1.119543e+01
1.544458e+01
1.121448e+01
1.545409e+01
1.120706e+01
1.546041e+01
1.121338e+01
</DataArray>
<DataArray type="Float32" Name="V2" format="ascii">
7.931908e-01
9.000000e-01
7.951771e-01
9.017726e-01
7.951771e-01
9.017726e-01
8.011001e-01
9.070793e-01
8.011001e-01
9.070793e-01
8.109290e-01
9.158885e-01
8.109290e-01
9.158885e-01
8.245948e-01
9.281538e-01
8.245948e-01
9.281538e-01
8.419869e-01
9.438262e-01
8.419869e-01
9.438262e-01
8.629172e-01
9.628721e-01
8.629172e-01
9.628721e-01
8.870310e-01
9.852887e-01
8.870310e-01
9.852887e-01
9.135655e-01
1.011078e+00
9.135655e-01
1.011078e+00
9.415059e-01
1.039959e+00
9.415059e-01
1.039959e+00
9.685276e-01
1.067288e+00
9.685276e-01
1.067288e+00
9.925747e-01
1.091069e+00
9.925747e-01
1.091069e+00
1.014004e+00
1.112553e+00
1.014004e+00
1.112553e+00
1.033006e+00
1.131655e+00
1.033006e+00
1.131655e+00
1.049877e+00
1.148570e+00
1.049877e+00
1.148570e+00
1.064858e+00
1.163519e+00
1.064858e+00
1.163519e+00
1.078164e+00
1.176732e+00
1.078164e+00
1.176732e+00
1.089978e+00
1.188410e+00
1.089978e+00
1.188410e+00
1.100458e+00
1.198731e+00
1.100458e+00
1.198731e+00
1.109736e+00
1.207840e+00
1.109736e+00
1.207840e+00
1.117923e+00
1.215858e+00
1.117923e+00
1.215858e+00
1.125110e+00
1.222884e+00
1.125110e+00
1.222884e+00
1.131373e+00
1.228999e+00
1.131373e+00
1.228999e+00
1.136776e+00
1.234268e+00
1.136776e+00
1.234268e+00
1.141369e+00
1.238744e+00
1.141369e+00
1.238744e+00
1.145192e+00
1.242468e+00
1.145192e+00
1.242468e+00
1.148280e+00
1.245474e+00
1.148280e+00
1.245474e+00
1.150656e+00
1.247787e+00
1.150656e+00
1.247787e+00
1.152341e+00
1.249426e+00
1.152341e+00
1.249426e+00
1.153346e+00
1.250405e+00
1.153346e+00
1.250405e+00
1.153681e+00
1.250730e+00
</DataArray>
<DataArray type="Float32" Name="V3" format="ascii">
0.000000e+00
0.000000e+00
1.592597e-02
1.025635e-02
1.592597e-02
1.025635e-02
3.147038e-02
2.018814e-02
3.147038e-02
2.018814e-02
4.624454e-02
2.948419e-02
4.624454e-02
2.948419e-02
5.984759e-02
3.785927e-02
5.984759e-02
3.785927e-02
7.185009e-02
4.507435e-02
7.185009e-02
4.507435e-02
8.177125e-02
5.095429e-02
8.177125e-02
5.095429e-02
8.905637e-02
5.537961e-02
8.905637e-02
5.537961e-02
9.311823e-02
5.818489e-02
9.311823e-02
5.818489e-02
9.372234e-02
5.861407e-02
9.372234e-02
5.861407e-02
9.248173e-02
5.765789e-02
9.248173e-02
5.765789e-02
8.981370e-02
5.749230e-02
8.981370e-02
5.749230e-02
8.648629e-02
5.750421e-02
8.648629e-02
5.750421e-02
8.288037e-02
5.736445e-02
8.288037e-02
5.736445e-02
7.908910e-02
5.686495e-02
7.908910e-02
5.686495e-02
7.514809e-02
5.590834e-02
7.514809e-02
5.590834e-02
7.106195e-02
5.446376e-02
7.106195e-02
5.446376e-02
6.682622e-02
5.253791e-02
6.682622e-02
5.253791e-02
6.243587e-02
5.015752e-02
6.243587e-02
5.015752e-02
5.788882e-02
4.735905e-02
5.788882e-02
4.735905e-02
5.318692e-02
4.418288e-02
5.318692e-02
4.418288e-02
4.833575e-02
4.067009e-02
4.833575e-02
4.067009e-02
4.334402e-02
3.686089e-02
4.334402e-02
3.686089e-02
3.822296e-02
3.279386e-02
3.822296e-02
3.279386e-02
3.298574e-02
2.850578e-02
3.298574e-02
2.850578e-02
2.764696e-02
2.403168e-02
2.764696e-02
2.403168e-02
2.222227e-02
1.940498e-02
2.222227e-02
1.940498e-02
1.672810e-02
1.465779e-02
1.672810e-02
1.465779e-02
1.118142e-02
9.821151e-03
1.118142e-02
9.821151e-03
5.599535e-03
4.925311e-03
5.599535e-03
4.925311e-03
0.000000e+00
0.000000e+00
</DataArray>
<DataArray type="Float32" Name="V4" format="ascii">
8.500000e-01
1.000000e+00
8.500000e-01
1.000000e+00
8.500000e-01
1.000000e+00
8.500000e-01
1.000000e+00
8.500000e-01
1.000000e+00
8.500000e-01
1.000000e+00
8.500000e-01
1.000000e+00
8.500000e-01
1.000000e+00
8.500000e-01
1.000000e+00
8.500000e-01
1.000000e+00
8.500000e-01
1.000000e+00
8.500000e-01
1.000000e+00
8.500000e-01
1.000000e+00
8.500000e-01
1.000000e+00
8.500000e-01
1.000000e+00
8.500000e-01
1.000000e+00
8.500000e-01
1.000000e+00
8.500000e-01
1.000000e+00
8.500000e-01
1.000000e+00
8.500000e-01
1.000000e+00
8.500000e-01
1.000000e+00
8.500000e-01
1.000000e+00
8.500000e-01
1.000000e+00
8.500000e-01
1.000000e+00
8.500000e-01
1.000000e+00
8.500000e-01
1.000000e+00
8.500000e-01
1.000000e+00
8.500000e-01
1.000000e+00
8.500000e-01
1.000000e+00
8.500000e-01
1.000000e+00
8.500000e-01
1.000000e+00
8.500000e-01
1.000000e+00
8.500000e-01
1.000000e+00
8.500000e-01
1.000000e+00
8.500000e-01
1.000000e+00
8.500000e-01
1.000000e+00
8.500000e-01
1.000000e+00
8.500000e-01
1.000000e+00
8.500000e-01
1.000000e+00
8.500000e-01
1.000000e+00
8.500000e-01
1.000000e+00
8.500000e-01
1.000000e+00
8.500000e-01
1.000000e+00
8.500000e-01
1.000000e+00
8.500000e-01
1.000000e+00
8.500000e-01
1.000000e+00
8.500000e-01
1.000000e+00
8.500000e-01
1.000000e+00
8.500000e-01
1.000000e+00
8.500000e-01
1.000000e+00
8.500000e-01
1.000000e+00
8.500000e-01
1.000000e+00
8.500000e-01
1.000000e+00
8.500000e-01
1.000000e+00
8.500000e-01
1.000000e+00
8.500000e-01
1.000000e+00
8.500000e-01
1.000000e+00
8.500000e-01
1.000000e+00
8.500000e-01
1.000000e+00
8.500000e-01
1.000000e+00
</DataArray>
<DataArray type="Float32" Name="V5" format="ascii">
0.000000e+00
0.000000e+00
5.235988e-02
5.235988e-02
5.235988e-02
5.235988e-02
1.047198e-01
1.047198e-01
1.047198e-01
1.047198e-01
1.570796e-01
1.570796e-01
1.570796e-01
1.570796e-01
2.094395e-01
2.094395e-01
2.094395e-01
2.094395e-01
2.617994e-01
2.617994e-01
2.617994e-01
2.617994e-01
3.141593e-01
3.141593e-01
3.141593e-01
3.141593e-01
3.665191e-01
3.665191e-01
3.665191e-01
3.665191e-01
4.188790e-01
4.188790e-01
4.188790e-01
4.188790e-01
4.712389e-01
4.712389e-01
4.712389e-01
4.712389e-01
5.235988e-01
5.235988e-01
5.235988e-01
5.235988e-01
5.759587e-01
5.759587e-01
5.759587e-01
5.759587e-01
6.283185e-01
6.283185e-01
6.283185e-01
6.283185e-01
6.806784e-01
6.806784e-01
6.806784e-01
6.806784e-01
7.330383e-01
7.330383e-01
7.330383e-01
7.330383e-01
7.853982e-01
7.853982e-01
7.853982e-01
7.853982e-01
8.377580e-01
8.377580e-01
8.377580e-01
8.377580e-01
8.901179e-01
8.901179e-01
8.901179e-01
8.901179e-01
9.424778e-01
9.424778e-01
9.424778e-01
9.424778e-01
9.948377e-01
9.948377e-01
9.948377e-01
9.948377e-01
1.047198e+00
1.047198e+00
1.047198e+00
1.047198e+00
1.099557e+00
1.099557e+00
1.099557e+00
1.099557e+00
1.151917e+00
1.151917e+00
1.151917e+00
1.151917e+00
1.204277e+00
1.204277e+00
1.204277e+00
1.204277e+00
1.256637e+00
1.256637e+00
1.256637e+00
1.256637e+00
1.308997e+00
1.308997e+00
1.308997e+00
1.308997e+00
1.361357e+00
1.361357e+00
1.361357e+00
1.361357e+00
1.413717e+00
1.413717e+00
1.413717e+00
1.413717e+00
1.466077e+00
1.466077e+00
1.466077e+00
1.466077e+00
1.518436e+00
1.518436e+00
1.518436e+00
1.518436e+00
1.570796e+00
1.570796e+00
</DataArray>
</PointData>
</Piece></UnstructuredGrid>
</VTKFile>
