<?xml version="1.0"?>
<VTKFile type="UnstructuredGrid" version="0.1" byte_order="LittleEndian" compressor="vtkZLibDataCompressor">
<UnstructuredGrid>
<Piece NumberOfPoints="120" NumberOfCells="30">
<Points>
<DataArray type="Float32" NumberOfComponents="3" format="ascii">
0.000000e+00 9.840618e-01 0.000000e+00
0.000000e+00 1.090000e+00 0.000000e+00
5.646939e-02 9.841350e-01 0.000000e+00
5.891190e-02 1.090000e+00 0.000000e+00
5.646939e-02 9.841350e-01 0.000000e+00
5.891190e-02 1.090000e+00 0.000000e+00
1.124536e-01 9.840895e-01 0.000000e+00
1.181172e-01 1.090000e+00 0.000000e+00
1.124536e-01 9.840895e-01 0.000000e+00
1.181172e-01 1.090000e+00 0.000000e+00
1.674716e-01 9.833582e-01 0.000000e+00
1.775957e-01 1.090000e+00 0.000000e+00
1.674716e-01 9.833582e-01 0.000000e+00
1.775957e-01 1.090000e+00 0.000000e+00
2.220774e-01 9.807902e-01 0.000000e+00
2.363982e-01 1.088228e+00 0.000000e+00
2.220774e-01 9.807902e-01 0.000000e+00
2.363982e-01 1.088228e+00 0.000000e+00
2.755041e-01 9.741495e-01 0.000000e+00
2.951025e-01 1.080369e+00 0.000000e+00
2.755041e-01 9.741495e-01 0.000000e+00
2.951025e-01 1.080369e+00 0.000000e+00
3.280243e-01 9.639731e-01 0.000000e+00
3.536610e-01 1.068526e+00 0.000000e+00
3.280243e-01 9.639731e-01 0.000000e+00
3.536610e-01 1.068526e+00 0.000000e+00
3.797130e-01 9.502125e-01 0.000000e+00
4.115169e-01 1.052755e+00 0.000000e+00
3.797130e-01 9.502125e-01 0.000000e+00
4.115169e-01 1.052755e+00 0.000000e+00
4.304660e-01 9.330888e-01 0.000000e+00
4.683368e-01 1.033290e+00 0.000000e+00
4.304660e-01 9.330888e-01 0.000000e+00
4.683368e-01 1.033290e+00 0.000000e+00
4.801386e-01 9.127669e-01 0.000000e+00
5.238705e-01 1.010328e+00 0.000000e+00
4.801386e-01 9.127669e-01 0.000000e+00
5.238705e-01 1.010328e+00 0.000000e+00
5.285774e-01 8.894055e-01 0.000000e+00
5.779242e-01 9.840543e-01 0.000000e+00
5.285774e-01 8.894055e-01 0.000000e+00
5.779242e-01 9.840543e-01 0.000000e+00
5.756307e-01 8.631536e-01 0.000000e+00
6.303325e-01 9.546388e-01 0.000000e+00
5.756307e-01 8.631536e-01 0.000000e+00
6.303325e-01 9.546388e-01 0.000000e+00
6.211529e-01 8.341543e-01 0.000000e+00
6.809475e-01 9.222413e-01 0.000000e+00
6.211529e-01 8.341543e-01 0.000000e+00
6.809475e-01 9.222413e-01 0.000000e+00
6.650054e-01 8.025461e-01 0.000000e+00
7.296322e-01 8.870142e-01 0.000000e+00
6.650054e-01 8.025461e-01 0.000000e+00
7.296322e-01 8.870142e-01 0.000000e+00
7.070576e-01 7.684652e-01 0.000000e+00
7.762577e-01 8.491050e-01 0.000000e+00
7.070576e-01 7.684652e-01 0.000000e+00
7.762577e-01 8.491050e-01 0.000000e+00
7.471862e-01 7.320459e-01 0.000000e+00
8.207021e-01 8.086590e-01 0.000000e+00
7.471862e-01 7.320459e-01 0.000000e+00
8.207021e-01 8.086590e-01 0.000000e+00
7.852756e-01 6.934227e-01 0.000000e+00
8.628495e-01 7.658210e-01 0.000000e+00
7.852756e-01 6.934227e-01 0.000000e+00
8.628495e-01 7.658210e-01 0.000000e+00
8.212174e-01 6.527305e-01 0.000000e+00
9.025902e-01 7.207361e-01 0.000000e+00
8.212174e-01 6.527305e-01 0.000000e+00
9.025902e-01 7.207361e-01 0.000000e+00
8.549104e-01 6.101055e-01 0.000000e+00
9.398207e-01 6.735511e-01 0.000000e+00
8.549104e-01 6.101055e-01 0.000000e+00
9.398207e-01 6.735511e-01 0.000000e+00
8.862603e-01 5.656856e-01 0.000000e+00
9.744438e-01 6.244145e-01 0.000000e+00
8.862603e-01 5.656856e-01 0.000000e+00
9.744438e-01 6.244145e-01 0.000000e+00
9.151801e-01 5.196103e-01 0.000000e+00
1.006369e+00 5.734774e-01 0.000000e+00
9.151801e-01 5.196103e-01 0.000000e+00
1.006369e+00 5.734774e-01 0.000000e+00
9.415900e-01 4.720216e-01 0.000000e+00
1.035513e+00 5.208932e-01 0.000000e+00
9.415900e-01 4.720216e-01 0.000000e+00
1.035513e+00 5.208932e-01 0.000000e+00
9.654173e-01 4.230635e-01 0.000000e+00
1.061798e+00 4.668179e-01 0.000000e+00
9.654173e-01 4.230635e-01 0.000000e+00
1.061798e+00 4.668179e-01 0.000000e+00
9.865968e-01 3.728820e-01 0.000000e+00
1.085157e+00 4.114101e-01 0.000000e+00
9.865968e-01 3.728820e-01 0.000000e+00
1.085157e+00 4.114101e-01 0.000000e+00
1.005070e+00 3.216252e-01 0.000000e+00
1.105528e+00 3.548307e-01 0.000000e+00
1.005070e+00 3.216252e-01 0.000000e+00
1.105528e+00 3.548307e-01 0.000000e+00
1.020788e+00 2.694429e-01 0.000000e+00
1.122856e+00 2.972426e-01 0.000000e+00
1.020788e+00 2.694429e-01 0.000000e+00
1.122856e+00 2.972426e-01 0.000000e+00
1.033706e+00 2.164869e-01 0.000000e+00
1.137096e+00 2.388110e-01 0.000000e+00
1.033706e+00 2.164869e-01 0.000000e+00
1.137096e+00 2.388110e-01 0.000000e+00
1.043791e+00 1.629099e-01 0.000000e+00
1.148211e+00 1.797024e-01 0.000000e+00
1.043791e+00 1.629099e-01 0.000000e+00
1.148211e+00 1.797024e-01 0.000000e+00
1.051013e+00 1.088664e-01 0.000000e+00
1.156172e+00 1.200849e-01 0.000000e+00
1.051013e+00 1.088664e-01 0.000000e+00
1.156172e+00 1.200849e-01 0.000000e+00
1.055355e+00 5.451116e-02 0.000000e+00
1.160956e+00 6.012748e-02 0.000000e+00
1.055355e+00 5.451116e-02 0.000000e+00
1.160956e+00 6.012748e-02 0.000000e+00
1.056803e+00 5.174730e-12 0.000000e+00
1.162553e+00 5.692540e-12 0.000000e+00
</DataArray>
</Points>
<Cells>
<DataArray type="Int32" Name="connectivity" format="ascii">
0 1 3 2
4 5 7 6
8 9 11 10
12 13 15 14
16 17 19 18
20 21 23 22
24 25 27 26
28 29 31 30
32 33 35 34
36 37 39 38
40 41 43 42
44 45 47 46
48 49 51 50
52 53 55 54
56 57 59 58
60 61 63 62
64 65 67 66
68 69 71 70
72 73 75 74
76 77 79 78
80 81 83 82
84 85 87 86
88 89 91 90
92 93 95 94
96 97 99 98
100 101 103 102
104 105 107 106
108 109 111 110
112 113 115 114
116 117 119 118
</DataArray>
<DataArray type="Int32" Name="offsets" format="ascii">
4
8
12
16
20
24
28
32
36
40
44
48
52
56
60
64
68
72
76
80
84
88
92
96
100
104
108
112
116
120
</DataArray>
<DataArray type="UInt8" Name="types" format="ascii">
9
9
9
9
9
9
9
9
9
9
9
9
9
9
9
9
9
9
9
9
9
9
9
9
9
9
9
9
9
9
</DataArray>
</Cells>
<PointData>
<DataArray type="Float32" Name="V1" format="ascii">
1.321532e+01
1.573546e+00
1.329378e+01
1.652008e+00
1.277475e+01
2.004101e+00
1.297567e+01
2.205020e+00
1.179823e+01
3.079537e+00
1.231992e+01
3.601225e+00
1.038589e+01
5.436625e+00
1.108859e+01
6.139325e+00
1.000534e+01
6.820326e+00
1.015638e+01
6.971364e+00
9.778304e+00
7.267034e+00
9.896537e+00
7.385267e+00
9.708688e+00
7.536738e+00
9.810445e+00
7.638494e+00
9.733420e+00
7.701611e+00
9.821299e+00
7.789490e+00
9.797673e+00
7.808818e+00
9.873061e+00
7.884206e+00
9.876496e+00
7.881484e+00
9.941142e+00
7.946130e+00
9.957292e+00
7.933095e+00
1.001279e+01
7.988591e+00
1.003416e+01
7.971369e+00
1.008190e+01
8.019109e+00
1.010460e+01
8.000869e+00
1.014576e+01
8.042033e+00
1.016781e+01
8.024355e+00
1.020338e+01
8.059926e+00
1.022387e+01
8.043537e+00
1.025466e+01
8.074332e+00
1.027322e+01
8.059512e+00
1.029992e+01
8.086205e+00
1.031648e+01
8.073004e+00
1.033963e+01
8.096156e+00
1.035427e+01
8.084510e+00
1.037434e+01
8.104587e+00
1.038718e+01
8.094385e+00
1.040457e+01
8.111774e+00
1.041576e+01
8.102889e+00
1.043078e+01
8.117912e+00
1.044048e+01
8.110218e+00
1.045341e+01
8.123146e+00
1.046176e+01
8.116528e+00
1.047281e+01
8.127585e+00
1.047994e+01
8.121940e+00
1.048931e+01
8.131312e+00
1.049532e+01
8.126552e+00
1.050317e+01
8.134395e+00
1.050816e+01
8.130445e+00
1.051460e+01
8.136884e+00
1.051865e+01
8.133682e+00
1.052379e+01
8.138820e+00
1.052695e+01
8.136315e+00
1.053087e+01
8.140232e+00
1.053321e+01
8.138386e+00
1.053596e+01
8.141142e+00
1.053750e+01
8.139927e+00
1.053914e+01
8.141565e+00
1.053990e+01
8.140961e+00
1.054044e+01
8.141505e+00
</DataArray>
<DataArray type="Float32" Name="V2" format="ascii">
9.840618e-01
1.090000e+00
9.857416e-01
1.091589e+00
9.857416e-01
1.091589e+00
9.904532e-01
1.096375e+00
9.904532e-01
1.096375e+00
9.974497e-01
1.104362e+00
9.974497e-01
1.104362e+00
1.005530e+00
1.113597e+00
1.005530e+00
1.113597e+00
1.012262e+00
1.119934e+00
1.012262e+00
1.119934e+00
1.018158e+00
1.125516e+00
1.018158e+00
1.125516e+00
1.023177e+00
1.130306e+00
1.023177e+00
1.130306e+00
1.027505e+00
1.134447e+00
1.027505e+00
1.134447e+00
1.031260e+00
1.138041e+00
1.031260e+00
1.138041e+00
1.034536e+00
1.141178e+00
1.034536e+00
1.141178e+00
1.037412e+00
1.143931e+00
1.037412e+00
1.143931e+00
1.039949e+00
1.146360e+00
1.039949e+00
1.146360e+00
1.042197e+00
1.148512e+00
1.042197e+00
1.148512e+00
1.044195e+00
1.150426e+00
1.044195e+00
1.150426e+00
1.045975e+00
1.152132e+00
1.045975e+00
1.152132e+00
1.047564e+00
1.153656e+00
1.047564e+00
1.153656e+00
1.048982e+00
1.155018e+00
1.048982e+00
1.155018e+00
1.050248e+00
1.156234e+00
1.050248e+00
1.156234e+00
1.051375e+00
1.157318e+00
1.051375e+00
1.157318e+00
1.052374e+00
1.158280e+00
1.052374e+00
1.158280e+00
1.053256e+00
1.159129e+00
1.053256e+00
1.159129e+00
1.054028e+00
1.159873e+00
1.054028e+00
1.159873e+00
1.054696e+00
1.160518e+00
1.054696e+00
1.160518e+00
1.055266e+00
1.161068e+00
1.055266e+00
1.161068e+00
1.055742e+00
1.161527e+00
1.055742e+00
1.161527e+00
1.056128e+00
1.161900e+00
1.056128e+00
1.161900e+00
1.056425e+00
1.162187e+00
1.056425e+00
1.162187e+00
1.056635e+00
1.162390e+00
1.056635e+00
1.162390e+00
1.056761e+00
1.162512e+00
1.056761e+00
1.162512e+00
1.056803e+00
1.162553e+00
</DataArray>
<DataArray type="Float32" Name="V3" format="ascii">
0.000000e+00
0.000000e+00
4.886355e-03
1.784967e-03
4.886355e-03
1.784967e-03
8.972184e-03
3.534145e-03
8.972184e-03
3.534145e-03
1.157864e-02
4.895641e-03
1.157864e-02
4.895641e-03
1.330677e-02
4.977051e-03
1.330677e-02
4.977051e-03
1.398806e-02
5.427057e-03
1.398806e-02
5.427057e-03
1.408557e-02
6.158823e-03
1.408557e-02
6.158823e-03
1.396694e-02
6.910617e-03
1.396694e-02
6.910617e-03
1.372886e-02
7.570064e-03
1.372886e-02
7.570064e-03
1.341907e-02
8.092689e-03
1.341907e-02
8.092689e-03
1.305869e-02
8.469896e-03
1.305869e-02
8.469896e-03
1.265743e-02
8.707810e-03
1.265743e-02
8.707810e-03
1.221968e-02
8.818270e-03
1.221968e-02
8.818270e-03
1.174762e-02
8.814609e-03
1.174762e-02
8.814609e-03
1.124260e-02
8.709810e-03
1.124260e-02
8.709810e-03
1.070581e-02
8.515779e-03
1.070581e-02
8.515779e-03
1.013847e-02
8.243144e-03
1.013847e-02
8.243144e-03
9.541990e-03
7.901289e-03
9.541990e-03
7.901289e-03
8.917961e-03
7.498487e-03
8.917961e-03
7.498487e-03
8.268117e-03
7.042055e-03
8.268117e-03
7.042055e-03
7.594324e-03
6.538507e-03
7.594324e-03
6.538507e-03
6.898553e-03
5.993702e-03
6.898553e-03
5.993702e-03
6.182851e-03
5.412956e-03
6.182851e-03
5.412956e-03
5.449329e-03
4.801146e-03
5.449329e-03
4.801146e-03
4.700139e-03
4.162800e-03
4.700139e-03
4.162800e-03
3.937470e-03
3.502158e-03
3.937470e-03
3.502158e-03
3.163537e-03
2.823241e-03
3.163537e-03
2.823241e-03
2.380572e-03
2.129896e-03
2.380572e-03
2.129896e-03
1.590822e-03
1.425836e-03
1.590822e-03
1.425836e-03
7.965438e-04
7.146836e-04
7.965438e-04
7.146836e-04
0.000000e+00
0.000000e+00
</DataArray>
<DataArray type="Float32" Name="V4" format="ascii">
8.500000e-01
1.000000e+00
8.500000e-01
1.000000e+00
8.500000e-01
1.000000e+00
8.500000e-01
1.000000e+00
8.500000e-01
1.000000e+00
8.500000e-01
1.000000e+00
8.500000e-01
1.000000e+00
8.500000e-01
1.000000e+00
8.500000e-01
1.000000e+00
8.500000e-01
1.000000e+00
8.500000e-01
1.000000e+00
8.500000e-01
1.000000e+00
8.500000e-01
1.000000e+00
8.500000e-01
1.000000e+00
8.500000e-01
1.000000e+00
8.500000e-01
1.000000e+00
8.500000e-01
1.000000e+00
8.500000e-01
1.000000e+00
8.500000e-01
1.000000e+00
8.500000e-01
1.000000e+00
8.500000e-01
1.000000e+00
8.500000e-01
1.000000e+00
8.500000e-01
1.000000e+00
8.500000e-01
1.000000e+00
8.500000e-01
1.000000e+00
8.500000e-01
1.000000e+00
8.500000e-01
1.000000e+00
8.500000e-01
1.000000e+00
8.500000e-01
1.000000e+00
8.500000e-01
1.000000e+00
8.500000e-01
1.000000e+00
8.500000e-01
1.000000e+00
8.500000e-01
1.000000e+00
8.500000e-01
1.000000e+00
8.500000e-01
1.000000e+00
8.500000e-01
1.000000e+00
8.500000e-01
1.000000e+00
8.500000e-01
1.000000e+00
8.500000e-01
1.000000e+00
8.500000e-01
1.000000e+00
8.500000e-01
1.000000e+00
8.500000e-01
1.000000e+00
8.500000e-01
1.000000e+00
8.500000e-01
1.000000e+00
8.500000e-01
1.000000e+00
8.500000e-01
1.000000e+00
8.500000e-01
1.000000e+00
8.500000e-01
1.000000e+00
8.500000e-01
1.000000e+00
8.500000e-01
1.000000e+00
8.500000e-01
1.000000e+00
8.500000e-01
1.000000e+00
8.500000e-01
1.000000e+00
8.500000e-01
1.000000e+00
8.500000e-01
1.000000e+00
8.500000e-01
1.000000e+00
8.500000e-01
1.000000e+00
8.500000e-01
1.000000e+00
8.500000e-01
1.000000e+00
8.500000e-01
1.000000e+00
</DataArray>
<DataArray type="Float32" Name="V5" format="ascii">
0.000000e+00
0.000000e+00
5.235988e-02
5.235988e-02
5.235988e-02
5.235988e-02
1.047198e-01
1.047198e-01
1.047198e-01
1.047198e-01
1.570796e-01
1.570796e-01
1.570796e-01
1.570796e-01
2.094395e-01
2.094395e-01
2.094395e-01
2.094395e-01
2.617994e-01
2.617994e-01
2.617994e-01
2.617994e-01
3.141593e-01
3.141593e-01
3.141593e-01
3.141593e-01
3.665191e-01
3.665191e-01
3.665191e-01
3.665191e-01
4.188790e-01
4.188790e-01
4.188790e-01
4.188790e-01
4.712389e-01
4.712389e-01
4.712389e-01
4.712389e-01
5.235988e-01
5.235988e-01
5.235988e-01
5.235988e-01
5.759587e-01
5.759587e-01
5.759587e-01
5.759587e-01
6.283185e-01
6.283185e-01
6.283185e-01
6.283185e-01
6.806784e-01
6.806784e-01
6.806784e-01
6.806784e-01
7.330383e-01
7.330383e-01
7.330383e-01
7.330383e-01
7.853982e-01
7.853982e-01
7.853982e-01
7.853982e-01
8.377580e-01
8.377580e-01
8.377580e-01
8.377580e-01
8.901179e-01
8.901179e-01
8.901179e-01
8.901179e-01
9.424778e-01
9.424778e-01
9.424778e-01
9.424778e-01
9.948377e-01
9.948377e-01
9.948377e-01
9.948377e-01
1.047198e+00
1.047198e+00
1.047198e+00
1.047198e+00
1.099557e+00
1.099557e+00
1.099557e+00
1.099557e+00
1.151917e+00
1.151917e+00
1.151917e+00
1.151917e+00
1.204277e+00
1.204277e+00
1.204277e+00
1.204277e+00
1.256637e+00
1.256637e+00
1.256637e+00
1.256637e+00
1.308997e+00
1.308997e+00
1.308997e+00
1.308997e+00
1.361357e+00
1.361357e+00
1.361357e+00
1.361357e+00
1.413717e+00
1.413717e+00
1.413717e+00
1.413717e+00
1.466077e+00
1.466077e+00
1.466077e+00
1.466077e+00
1.518436e+00
1.518436e+00
1.518436e+00
1.518436e+00
1.570796e+00
1.570796e+00
</DataArray>
</PointData>
</Piece></UnstructuredGrid>
</VTKFile>
