<?xml version="1.0"?>
<VTKFile type="UnstructuredGrid" version="0.1" byte_order="LittleEndian" compressor="vtkZLibDataCompressor">
<UnstructuredGrid>
<Piece NumberOfPoints="120" NumberOfCells="30">
<Points>
<DataArray type="Float32" NumberOfComponents="3" format="ascii">
0.000000e+00 9.428571e-01 0.000000e+00
0.000000e+00 1.050000e+00 0.000000e+00
5.689600e-02 9.429726e-01 0.000000e+00
5.791342e-02 1.050000e+00 0.000000e+00
5.689600e-02 9.429726e-01 0.000000e+00
5.791342e-02 1.050000e+00 0.000000e+00
1.135614e-01 9.432292e-01 0.000000e+00
1.160863e-01 1.050000e+00 0.000000e+00
1.135614e-01 9.432292e-01 0.000000e+00
1.160863e-01 1.050000e+00 0.000000e+00
1.696763e-01 9.434825e-01 0.000000e+00
1.747582e-01 1.050000e+00 0.000000e+00
1.696763e-01 9.434825e-01 0.000000e+00
1.747582e-01 1.050000e+00 0.000000e+00
2.247934e-01 9.432111e-01 0.000000e+00
2.339726e-01 1.050000e+00 0.000000e+00
2.247934e-01 9.432111e-01 0.000000e+00
2.339726e-01 1.050000e+00 0.000000e+00
2.791211e-01 9.416544e-01 0.000000e+00
2.929543e-01 1.049286e+00 0.000000e+00
2.791211e-01 9.416544e-01 0.000000e+00
2.929543e-01 1.049286e+00 0.000000e+00
3.324834e-01 9.361355e-01 0.000000e+00
3.515707e-01 1.042751e+00 0.000000e+00
3.324834e-01 9.361355e-01 0.000000e+00
3.515707e-01 1.042751e+00 0.000000e+00
3.846217e-01 9.267741e-01 0.000000e+00
4.100780e-01 1.031484e+00 0.000000e+00
3.846217e-01 9.267741e-01 0.000000e+00
4.100780e-01 1.031484e+00 0.000000e+00
4.357898e-01 9.134335e-01 0.000000e+00
4.679044e-01 1.015807e+00 0.000000e+00
4.357898e-01 9.134335e-01 0.000000e+00
4.679044e-01 1.015807e+00 0.000000e+00
4.859206e-01 8.963559e-01 0.000000e+00
5.245987e-01 9.960064e-01 0.000000e+00
4.859206e-01 8.963559e-01 0.000000e+00
5.245987e-01 9.960064e-01 0.000000e+00
5.348705e-01 8.757583e-01 0.000000e+00
5.798430e-01 9.723519e-01 0.000000e+00
5.348705e-01 8.757583e-01 0.000000e+00
5.798430e-01 9.723519e-01 0.000000e+00
5.824776e-01 8.518521e-01 0.000000e+00
6.334096e-01 9.451032e-01 0.000000e+00
5.824776e-01 8.518521e-01 0.000000e+00
6.334096e-01 9.451032e-01 0.000000e+00
6.285803e-01 8.248375e-01 0.000000e+00
6.851198e-01 9.144977e-01 0.000000e+00
6.285803e-01 8.248375e-01 0.000000e+00
6.851198e-01 9.144977e-01 0.000000e+00
6.730249e-01 7.949046e-01 0.000000e+00
7.348236e-01 8.807529e-01 0.000000e+00
6.730249e-01 7.949046e-01 0.000000e+00
7.348236e-01 8.807529e-01 0.000000e+00
7.156672e-01 7.622339e-01 0.000000e+00
7.823882e-01 8.440698e-01 0.000000e+00
7.156672e-01 7.622339e-01 0.000000e+00
7.823882e-01 8.440698e-01 0.000000e+00
7.563737e-01 7.269987e-01 0.000000e+00
8.276924e-01 8.046373e-01 0.000000e+00
7.563737e-01 7.269987e-01 0.000000e+00
8.276924e-01 8.046373e-01 0.000000e+00
7.950205e-01 6.893662e-01 0.000000e+00
8.706232e-01 7.626352e-01 0.000000e+00
7.950205e-01 6.893662e-01 0.000000e+00
8.706232e-01 7.626352e-01 0.000000e+00
8.314931e-01 6.494995e-01 0.000000e+00
9.110748e-01 7.182378e-01 0.000000e+00
8.314931e-01 6.494995e-01 0.000000e+00
9.110748e-01 7.182378e-01 0.000000e+00
8.656858e-01 6.075587e-01 0.000000e+00
9.489475e-01 6.716152e-01 0.000000e+00
8.656858e-01 6.075587e-01 0.000000e+00
9.489475e-01 6.716152e-01 0.000000e+00
8.975011e-01 5.637019e-01 0.000000e+00
9.841482e-01 6.229359e-01 0.000000e+00
8.975011e-01 5.637019e-01 0.000000e+00
9.841482e-01 6.229359e-01 0.000000e+00
9.268497e-01 5.180866e-01 0.000000e+00
1.016590e+00 5.723672e-01 0.000000e+00
9.268497e-01 5.180866e-01 0.000000e+00
1.016590e+00 5.723672e-01 0.000000e+00
9.536501e-01 4.708697e-01 0.000000e+00
1.046192e+00 5.200765e-01 0.000000e+00
9.536501e-01 4.708697e-01 0.000000e+00
1.046192e+00 5.200765e-01 0.000000e+00
9.778284e-01 4.222083e-01 0.000000e+00
1.072881e+00 4.662316e-01 0.000000e+00
9.778284e-01 4.222083e-01 0.000000e+00
1.072881e+00 4.662316e-01 0.000000e+00
9.993186e-01 3.722603e-01 0.000000e+00
1.096591e+00 4.110014e-01 0.000000e+00
9.993186e-01 3.722603e-01 0.000000e+00
1.096591e+00 4.110014e-01 0.000000e+00
1.018062e+00 3.211839e-01 0.000000e+00
1.117261e+00 3.545555e-01 0.000000e+00
1.018062e+00 3.211839e-01 0.000000e+00
1.117261e+00 3.545555e-01 0.000000e+00
1.034008e+00 2.691385e-01 0.000000e+00
1.134840e+00 2.970650e-01 0.000000e+00
1.034008e+00 2.691385e-01 0.000000e+00
1.134840e+00 2.970650e-01 0.000000e+00
1.047114e+00 2.162840e-01 0.000000e+00
1.149284e+00 2.387021e-01 0.000000e+00
1.047114e+00 2.162840e-01 0.000000e+00
1.149284e+00 2.387021e-01 0.000000e+00
1.057344e+00 1.627812e-01 0.000000e+00
1.160556e+00 1.796397e-01 0.000000e+00
1.057344e+00 1.627812e-01 0.000000e+00
1.160556e+00 1.796397e-01 0.000000e+00
1.064671e+00 1.087916e-01 0.000000e+00
1.168628e+00 1.200521e-01 0.000000e+00
1.064671e+00 1.087916e-01 0.000000e+00
1.168628e+00 1.200521e-01 0.000000e+00
1.069075e+00 5.447705e-02 0.000000e+00
1.173480e+00 6.011375e-02 0.000000e+00
1.069075e+00 5.447705e-02 0.000000e+00
1.173480e+00 6.011375e-02 0.000000e+00
1.070544e+00 5.242010e-12 0.000000e+00
1.175098e+00 5.753970e-12 0.000000e+00
</DataArray>
</Points>
<Cells>
<DataArray type="Int32" Name="connectivity" format="ascii">
0 1 3 2
4 5 7 6
8 9 11 10
12 13 15 14
16 17 19 18
20 21 23 22
24 25 27 26
28 29 31 30
32 33 35 34
36 37 39 38
40 41 43 42
44 45 47 46
48 49 51 50
52 53 55 54
56 57 59 58
60 61 63 62
64 65 67 66
68 69 71 70
72 73 75 74
76 77 79 78
80 81 83 82
84 85 87 86
88 89 91 90
92 93 95 94
96 97 99 98
100 101 103 102
104 105 107 106
108 109 111 110
112 113 115 114
116 117 119 118
</DataArray>
<DataArray type="Int32" Name="offsets" format="ascii">
4
8
12
16
20
24
28
32
36
40
44
48
52
56
60
64
68
72
76
80
84
88
92
96
100
104
108
112
116
120
</DataArray>
<DataArray type="UInt8" Name="types" format="ascii">
9
9
9
9
9
9
9
9
9
9
9
9
9
9
9
9
9
9
9
9
9
9
9
9
9
9
9
9
9
9
</DataArray>
</Cells>
<PointData>
<DataArray type="Float32" Name="V1" format="ascii">
1.363190e+01
6.796849e-01
1.366472e+01
7.125020e-01
1.344701e+01
8.552990e-01
1.352402e+01
9.323053e-01
1.299939e+01
1.303215e+00
1.318098e+01
1.484809e+00
1.213575e+01
2.250837e+00
1.257716e+01
2.692244e+00
1.071682e+01
4.296502e+00
1.149925e+01
5.078933e+00
9.965687e+00
6.345652e+00
1.029108e+01
6.671041e+00
9.679494e+00
7.101230e+00
9.862859e+00
7.284595e+00
9.582999e+00
7.511275e+00
9.745809e+00
7.674085e+00
9.632386e+00
7.768473e+00
9.778131e+00
7.914218e+00
9.748135e+00
7.939407e+00
9.876594e+00
8.067866e+00
9.889074e+00
8.057859e+00
1.000136e+01
8.170147e+00
1.003395e+01
8.143618e+00
1.013169e+01
8.241360e+00
1.017239e+01
8.208293e+00
1.025733e+01
8.293232e+00
1.029979e+01
8.258859e+00
1.037358e+01
8.332644e+00
1.041456e+01
8.299594e+00
1.047866e+01
8.363697e+00
1.051663e+01
8.333183e+00
1.057233e+01
8.388885e+00
1.060668e+01
8.361364e+00
1.065507e+01
8.409760e+00
1.068568e+01
8.385299e+00
1.072770e+01
8.427316e+00
1.075470e+01
8.405790e+00
1.079112e+01
8.442213e+00
1.081475e+01
8.423414e+00
1.084624e+01
8.454902e+00
1.086676e+01
8.438600e+00
1.089387e+01
8.465707e+00
1.091156e+01
8.451673e+00
1.093476e+01
8.474865e+00
1.094987e+01
8.462890e+00
1.096954e+01
8.482554e+00
1.098230e+01
8.472454e+00
1.099876e+01
8.488912e+00
1.100936e+01
8.480531e+00
1.102287e+01
8.494046e+00
1.103147e+01
8.487252e+00
1.104225e+01
8.498037e+00
1.104898e+01
8.492724e+00
1.105720e+01
8.500946e+00
1.106216e+01
8.497032e+00
1.106795e+01
8.502817e+00
1.107121e+01
8.500241e+00
1.107465e+01
8.503678e+00
1.107627e+01
8.502399e+00
1.107741e+01
8.503539e+00
</DataArray>
<DataArray type="Float32" Name="V2" format="ascii">
9.428571e-01
1.050000e+00
9.446580e-01
1.051592e+00
9.446580e-01
1.051592e+00
9.499325e-01
1.056382e+00
9.499325e-01
1.056382e+00
9.584098e-01
1.064411e+00
9.584098e-01
1.064411e+00
9.693369e-01
1.075701e+00
9.693369e-01
1.075701e+00
9.818101e-01
1.089355e+00
9.818101e-01
1.089355e+00
9.930608e-01
1.100357e+00
9.930608e-01
1.100357e+00
1.003054e+00
1.109932e+00
1.003054e+00
1.109932e+00
1.011715e+00
1.118300e+00
1.011715e+00
1.118300e+00
1.019262e+00
1.125611e+00
1.019262e+00
1.125611e+00
1.025864e+00
1.132003e+00
1.025864e+00
1.132003e+00
1.031663e+00
1.137610e+00
1.031663e+00
1.137610e+00
1.036778e+00
1.142547e+00
1.036778e+00
1.142547e+00
1.041305e+00
1.146913e+00
1.041305e+00
1.146913e+00
1.045325e+00
1.150786e+00
1.045325e+00
1.150786e+00
1.048903e+00
1.154231e+00
1.048903e+00
1.154231e+00
1.052091e+00
1.157302e+00
1.052091e+00
1.157302e+00
1.054935e+00
1.160040e+00
1.054935e+00
1.160040e+00
1.057469e+00
1.162480e+00
1.057469e+00
1.162480e+00
1.059722e+00
1.164651e+00
1.059722e+00
1.164651e+00
1.061719e+00
1.166576e+00
1.061719e+00
1.166576e+00
1.063479e+00
1.168274e+00
1.063479e+00
1.168274e+00
1.065018e+00
1.169759e+00
1.065018e+00
1.169759e+00
1.066350e+00
1.171045e+00
1.066350e+00
1.171045e+00
1.067486e+00
1.172142e+00
1.067486e+00
1.172142e+00
1.068433e+00
1.173058e+00
1.068433e+00
1.173058e+00
1.069200e+00
1.173798e+00
1.069200e+00
1.173798e+00
1.069791e+00
1.174370e+00
1.069791e+00
1.174370e+00
1.070210e+00
1.174775e+00
1.070210e+00
1.174775e+00
1.070461e+00
1.175018e+00
1.070461e+00
1.175018e+00
1.070544e+00
1.175098e+00
</DataArray>
<DataArray type="Float32" Name="V3" format="ascii">
0.000000e+00
0.000000e+00
7.466659e-03
2.881296e-03
7.466659e-03
2.881296e-03
1.434503e-02
5.695530e-03
1.434503e-02
5.695530e-03
1.999417e-02
8.350467e-03
1.999417e-02
8.350467e-03
2.377653e-02
1.055244e-02
2.377653e-02
1.055244e-02
2.589223e-02
1.139690e-02
2.589223e-02
1.139690e-02
2.692875e-02
1.213567e-02
2.692875e-02
1.213567e-02
2.694911e-02
1.318999e-02
2.694911e-02
1.318999e-02
2.658691e-02
1.428584e-02
2.658691e-02
1.428584e-02
2.602139e-02
1.524344e-02
2.602139e-02
1.524344e-02
2.533233e-02
1.598285e-02
2.533233e-02
1.598285e-02
2.455493e-02
1.648188e-02
2.455493e-02
1.648188e-02
2.370484e-02
1.674526e-02
2.370484e-02
1.674526e-02
2.278890e-02
1.678940e-02
2.278890e-02
1.678940e-02
2.181035e-02
1.663479e-02
2.181035e-02
1.663479e-02
2.077125e-02
1.630243e-02
2.077125e-02
1.630243e-02
1.967358e-02
1.581222e-02
1.967358e-02
1.581222e-02
1.851961e-02
1.518236e-02
1.851961e-02
1.518236e-02
1.731202e-02
1.442923e-02
1.731202e-02
1.442923e-02
1.605391e-02
1.356751e-02
1.605391e-02
1.356751e-02
1.474871e-02
1.261037e-02
1.474871e-02
1.261037e-02
1.340016e-02
1.156971e-02
1.340016e-02
1.156971e-02
1.201217e-02
1.045632e-02
1.201217e-02
1.045632e-02
1.058885e-02
9.280120e-03
1.058885e-02
9.280120e-03
9.134418e-03
8.050299e-03
9.134418e-03
8.050299e-03
7.653194e-03
6.775462e-03
7.653194e-03
6.775462e-03
6.149558e-03
5.463748e-03
6.149558e-03
5.463748e-03
4.627942e-03
4.122935e-03
4.627942e-03
4.122935e-03
3.092813e-03
2.760524e-03
3.092813e-03
2.760524e-03
1.548664e-03
1.383820e-03
1.548664e-03
1.383820e-03
0.000000e+00
0.000000e+00
</DataArray>
<DataArray type="Float32" Name="V4" format="ascii">
8.500000e-01
1.000000e+00
8.500000e-01
1.000000e+00
8.500000e-01
1.000000e+00
8.500000e-01
1.000000e+00
8.500000e-01
1.000000e+00
8.500000e-01
1.000000e+00
8.500000e-01
1.000000e+00
8.500000e-01
1.000000e+00
8.500000e-01
1.000000e+00
8.500000e-01
1.000000e+00
8.500000e-01
1.000000e+00
8.500000e-01
1.000000e+00
8.500000e-01
1.000000e+00
8.500000e-01
1.000000e+00
8.500000e-01
1.000000e+00
8.500000e-01
1.000000e+00
8.500000e-01
1.000000e+00
8.500000e-01
1.000000e+00
8.500000e-01
1.000000e+00
8.500000e-01
1.000000e+00
8.500000e-01
1.000000e+00
8.500000e-01
1.000000e+00
8.500000e-01
1.000000e+00
8.500000e-01
1.000000e+00
8.500000e-01
1.000000e+00
8.500000e-01
1.000000e+00
8.500000e-01
1.000000e+00
8.500000e-01
1.000000e+00
8.500000e-01
1.000000e+00
8.500000e-01
1.000000e+00
8.500000e-01
1.000000e+00
8.500000e-01
1.000000e+00
8.500000e-01
1.000000e+00
8.500000e-01
1.000000e+00
8.500000e-01
1.000000e+00
8.500000e-01
1.000000e+00
8.500000e-01
1.000000e+00
8.500000e-01
1.000000e+00
8.500000e-01
1.000000e+00
8.500000e-01
1.000000e+00
8.500000e-01
1.000000e+00
8.500000e-01
1.000000e+00
8.500000e-01
1.000000e+00
8.500000e-01
1.000000e+00
8.500000e-01
1.000000e+00
8.500000e-01
1.000000e+00
8.500000e-01
1.000000e+00
8.500000e-01
1.000000e+00
8.500000e-01
1.000000e+00
8.500000e-01
1.000000e+00
8.500000e-01
1.000000e+00
8.500000e-01
1.000000e+00
8.500000e-01
1.000000e+00
8.500000e-01
1.000000e+00
8.500000e-01
1.000000e+00
8.500000e-01
1.000000e+00
8.500000e-01
1.000000e+00
8.500000e-01
1.000000e+00
8.500000e-01
1.000000e+00
8.500000e-01
1.000000e+00
</DataArray>
<DataArray type="Float32" Name="V5" format="ascii">
0.000000e+00
0.000000e+00
5.235988e-02
5.235988e-02
5.235988e-02
5.235988e-02
1.047198e-01
1.047198e-01
1.047198e-01
1.047198e-01
1.570796e-01
1.570796e-01
1.570796e-01
1.570796e-01
2.094395e-01
2.094395e-01
2.094395e-01
2.094395e-01
2.617994e-01
2.617994e-01
2.617994e-01
2.617994e-01
3.141593e-01
3.141593e-01
3.141593e-01
3.141593e-01
3.665191e-01
3.665191e-01
3.665191e-01
3.665191e-01
4.188790e-01
4.188790e-01
4.188790e-01
4.188790e-01
4.712389e-01
4.712389e-01
4.712389e-01
4.712389e-01
5.235988e-01
5.235988e-01
5.235988e-01
5.235988e-01
5.759587e-01
5.759587e-01
5.759587e-01
5.759587e-01
6.283185e-01
6.283185e-01
6.283185e-01
6.283185e-01
6.806784e-01
6.806784e-01
6.806784e-01
6.806784e-01
7.330383e-01
7.330383e-01
7.330383e-01
7.330383e-01
7.853982e-01
7.853982e-01
7.853982e-01
7.853982e-01
8.377580e-01
8.377580e-01
8.377580e-01
8.377580e-01
8.901179e-01
8.901179e-01
8.901179e-01
8.901179e-01
9.424778e-01
9.424778e-01
9.424778e-01
9.424778e-01
9.948377e-01
9.948377e-01
9.948377e-01
9.948377e-01
1.047198e+00
1.047198e+00
1.047198e+00
1.047198e+00
1.099557e+00
1.099557e+00
1.099557e+00
1.099557e+00
1.151917e+00
1.151917e+00
1.151917e+00
1.151917e+00
1.204277e+00
1.204277e+00
1.204277e+00
1.204277e+00
1.256637e+00
1.256637e+00
1.256637e+00
1.256637e+00
1.308997e+00
1.308997e+00
1.308997e+00
1.308997e+00
1.361357e+00
1.361357e+00
1.361357e+00
1.361357e+00
1.413717e+00
1.413717e+00
1.413717e+00
1.413717e+00
1.466077e+00
1.466077e+00
1.466077e+00
1.466077e+00
1.518436e+00
1.518436e+00
1.518436e+00
1.518436e+00
1.570796e+00
1.570796e+00
</DataArray>
</PointData>
</Piece></UnstructuredGrid>
</VTKFile>
