<?xml version="1.0"?>
<VTKFile type="UnstructuredGrid" version="0.1" byte_order="LittleEndian" compressor="vtkZLibDataCompressor">
<UnstructuredGrid>
<Piece NumberOfPoints="120" NumberOfCells="30">
<Points>
<DataArray type="Float32" NumberOfComponents="3" format="ascii">
0.000000e+00 7.642033e-01 0.000000e+00
0.000000e+00 8.700000e-01 0.000000e+00
5.779977e-02 7.642631e-01 0.000000e+00
5.770330e-02 8.700000e-01 0.000000e+00
5.779977e-02 7.642631e-01 0.000000e+00
5.770330e-02 8.700000e-01 0.000000e+00
1.155979e-01 7.644203e-01 0.000000e+00
1.154159e-01 8.700000e-01 0.000000e+00
1.155979e-01 7.644203e-01 0.000000e+00
1.154159e-01 8.700000e-01 0.000000e+00
1.733876e-01 7.646876e-01 0.000000e+00
1.731545e-01 8.700000e-01 0.000000e+00
1.733876e-01 7.646876e-01 0.000000e+00
1.731545e-01 8.700000e-01 0.000000e+00
2.311550e-01 7.650733e-01 0.000000e+00
2.309502e-01 8.700000e-01 0.000000e+00
2.311550e-01 7.650733e-01 0.000000e+00
2.309502e-01 8.700000e-01 0.000000e+00
2.888677e-01 7.655903e-01 0.000000e+00
2.888641e-01 8.700000e-01 0.000000e+00
2.888677e-01 7.655903e-01 0.000000e+00
2.888641e-01 8.700000e-01 0.000000e+00
3.464541e-01 7.662521e-01 0.000000e+00
3.470083e-01 8.700000e-01 0.000000e+00
3.464541e-01 7.662521e-01 0.000000e+00
3.470083e-01 8.700000e-01 0.000000e+00
4.037648e-01 7.670523e-01 0.000000e+00
4.055687e-01 8.700000e-01 0.000000e+00
4.037648e-01 7.670523e-01 0.000000e+00
4.055687e-01 8.700000e-01 0.000000e+00
4.605059e-01 7.678987e-01 0.000000e+00
4.647953e-01 8.700000e-01 0.000000e+00
4.605059e-01 7.678987e-01 0.000000e+00
4.647953e-01 8.700000e-01 0.000000e+00
5.161482e-01 7.683596e-01 0.000000e+00
5.248707e-01 8.700000e-01 0.000000e+00
5.161482e-01 7.683596e-01 0.000000e+00
5.248707e-01 8.700000e-01 0.000000e+00
5.704997e-01 7.678904e-01 0.000000e+00
5.850701e-01 8.700000e-01 0.000000e+00
5.704997e-01 7.678904e-01 0.000000e+00
5.850701e-01 8.700000e-01 0.000000e+00
6.238018e-01 7.629799e-01 0.000000e+00
6.444603e-01 8.636669e-01 0.000000e+00
6.238018e-01 7.629799e-01 0.000000e+00
6.444603e-01 8.636669e-01 0.000000e+00
6.751687e-01 7.528780e-01 0.000000e+00
7.034745e-01 8.505373e-01 0.000000e+00
6.751687e-01 7.528780e-01 0.000000e+00
7.034745e-01 8.505373e-01 0.000000e+00
7.249299e-01 7.374602e-01 0.000000e+00
7.613110e-01 8.313618e-01 0.000000e+00
7.249299e-01 7.374602e-01 0.000000e+00
7.613110e-01 8.313618e-01 0.000000e+00
7.729711e-01 7.170597e-01 0.000000e+00
8.171554e-01 8.065910e-01 0.000000e+00
7.729711e-01 7.170597e-01 0.000000e+00
8.171554e-01 8.065910e-01 0.000000e+00
8.190787e-01 6.920759e-01 0.000000e+00
8.704799e-01 7.767759e-01 0.000000e+00
8.190787e-01 6.920759e-01 0.000000e+00
8.704799e-01 7.767759e-01 0.000000e+00
8.630299e-01 6.629119e-01 0.000000e+00
9.209545e-01 7.424620e-01 0.000000e+00
8.630299e-01 6.629119e-01 0.000000e+00
9.209545e-01 7.424620e-01 0.000000e+00
9.046209e-01 6.299616e-01 0.000000e+00
9.683705e-01 7.041514e-01 0.000000e+00
9.046209e-01 6.299616e-01 0.000000e+00
9.683705e-01 7.041514e-01 0.000000e+00
9.436748e-01 5.935986e-01 0.000000e+00
1.012591e+00 6.622931e-01 0.000000e+00
9.436748e-01 5.935986e-01 0.000000e+00
1.012591e+00 6.622931e-01 0.000000e+00
9.800414e-01 5.541736e-01 0.000000e+00
1.053520e+00 6.172865e-01 0.000000e+00
9.800414e-01 5.541736e-01 0.000000e+00
1.053520e+00 6.172865e-01 0.000000e+00
1.013594e+00 5.120136e-01 0.000000e+00
1.091085e+00 5.694890e-01 0.000000e+00
1.013594e+00 5.120136e-01 0.000000e+00
1.091085e+00 5.694890e-01 0.000000e+00
1.044227e+00 4.674238e-01 0.000000e+00
1.125231e+00 5.192244e-01 0.000000e+00
1.044227e+00 4.674238e-01 0.000000e+00
1.125231e+00 5.192244e-01 0.000000e+00
1.071850e+00 4.206909e-01 0.000000e+00
1.155910e+00 4.667901e-01 0.000000e+00
1.071850e+00 4.206909e-01 0.000000e+00
1.155910e+00 4.667901e-01 0.000000e+00
1.096387e+00 3.720856e-01 0.000000e+00
1.183078e+00 4.124630e-01 0.000000e+00
1.096387e+00 3.720856e-01 0.000000e+00
1.183078e+00 4.124630e-01 0.000000e+00
1.117773e+00 3.218655e-01 0.000000e+00
1.206700e+00 3.565048e-01 0.000000e+00
1.117773e+00 3.218655e-01 0.000000e+00
1.206700e+00 3.565048e-01 0.000000e+00
1.135957e+00 2.702778e-01 0.000000e+00
1.226745e+00 2.991654e-01 0.000000e+00
1.135957e+00 2.702778e-01 0.000000e+00
1.226745e+00 2.991654e-01 0.000000e+00
1.150892e+00 2.175616e-01 0.000000e+00
1.243183e+00 2.406860e-01 0.000000e+00
1.150892e+00 2.175616e-01 0.000000e+00
1.243183e+00 2.406860e-01 0.000000e+00
1.162545e+00 1.639494e-01 0.000000e+00
1.255993e+00 1.813012e-01 0.000000e+00
1.162545e+00 1.639494e-01 0.000000e+00
1.255993e+00 1.813012e-01 0.000000e+00
1.170887e+00 1.096691e-01 0.000000e+00
1.265156e+00 1.212411e-01 0.000000e+00
1.170887e+00 1.096691e-01 0.000000e+00
1.265156e+00 1.212411e-01 0.000000e+00
1.175900e+00 5.494519e-02 0.000000e+00
1.270659e+00 6.073245e-02 0.000000e+00
1.175900e+00 5.494519e-02 0.000000e+00
1.270659e+00 6.073245e-02 0.000000e+00
1.177573e+00 5.766090e-12 0.000000e+00
1.272494e+00 6.230880e-12 0.000000e+00
</DataArray>
</Points>
<Cells>
<DataArray type="Int32" Name="connectivity" format="ascii">
0 1 3 2
4 5 7 6
8 9 11 10
12 13 15 14
16 17 19 18
20 21 23 22
24 25 27 26
28 29 31 30
32 33 35 34
36 37 39 38
40 41 43 42
44 45 47 46
48 49 51 50
52 53 55 54
56 57 59 58
60 61 63 62
64 65 67 66
68 69 71 70
72 73 75 74
76 77 79 78
80 81 83 82
84 85 87 86
88 89 91 90
92 93 95 94
96 97 99 98
100 101 103 102
104 105 107 106
108 109 111 110
112 113 115 114
116 117 119 118
</DataArray>
<DataArray type="Int32" Name="offsets" format="ascii">
4
8
12
16
20
24
28
32
36
40
44
48
52
56
60
64
68
72
76
80
84
88
92
96
100
104
108
112
116
120
</DataArray>
<DataArray type="UInt8" Name="types" format="ascii">
9
9
9
9
9
9
9
9
9
9
9
9
9
9
9
9
9
9
9
9
9
9
9
9
9
9
9
9
9
9
</DataArray>
</Cells>
<PointData>
<DataArray type="Float32" Name="V1" format="ascii">
1.433321e+01
-2.319627e-01
1.435455e+01
-2.106220e-01
1.437589e+01
-2.264202e-01
1.443149e+01
-1.708112e-01
1.447377e+01
-2.008029e-01
1.456710e+01
-1.074695e-01
1.462210e+01
-1.475989e-01
1.475343e+01
-1.627041e-02
1.480453e+01
-5.547275e-02
1.497526e+01
1.152576e-01
1.498472e+01
1.024373e-01
1.520001e+01
3.177295e-01
1.508818e+01
3.865607e-01
1.536380e+01
6.621791e-01
1.497455e+01
9.277297e-01
1.535426e+01
1.307446e+00
1.441075e+01
1.983434e+00
1.503697e+01
2.609650e+00
1.301016e+01
4.253246e+00
1.414926e+01
5.392342e+00
1.188752e+01
7.490040e+00
1.265939e+01
8.261914e+00
1.167073e+01
8.917449e+00
1.214283e+01
9.389545e+00
1.177234e+01
9.698259e+00
1.222994e+01
1.015586e+01
1.214479e+01
1.023214e+01
1.258232e+01
1.066966e+01
1.264747e+01
1.061712e+01
1.305409e+01
1.102374e+01
1.319441e+01
1.090704e+01
1.356454e+01
1.127717e+01
1.373756e+01
1.113363e+01
1.406965e+01
1.146572e+01
1.425121e+01
1.131626e+01
1.454611e+01
1.161115e+01
1.472276e+01
1.146700e+01
1.498252e+01
1.172676e+01
1.514715e+01
1.159355e+01
1.537432e+01
1.182072e+01
1.552349e+01
1.170096e+01
1.572072e+01
1.189819e+01
1.585308e+01
1.179263e+01
1.602287e+01
1.196243e+01
1.613823e+01
1.187096e+01
1.628286e+01
1.201559e+01
1.638165e+01
1.193765e+01
1.650312e+01
1.205911e+01
1.658599e+01
1.199399e+01
1.668600e+01
1.209400e+01
1.675371e+01
1.204097e+01
1.683366e+01
1.212092e+01
1.688690e+01
1.207933e+01
1.694794e+01
1.214037e+01
1.698733e+01
1.210967e+01
1.703032e+01
1.215266e+01
1.705631e+01
1.213243e+01
1.708186e+01
1.215798e+01
1.709477e+01
1.214794e+01
1.710325e+01
1.215642e+01
</DataArray>
<DataArray type="Float32" Name="V2" format="ascii">
7.642033e-01
8.700000e-01
7.662407e-01
8.718277e-01
7.662407e-01
8.718277e-01
7.723160e-01
8.772983e-01
7.723160e-01
8.772983e-01
7.823969e-01
8.863762e-01
7.823969e-01
8.863762e-01
7.964144e-01
8.990057e-01
7.964144e-01
8.990057e-01
8.142679e-01
9.151190e-01
8.142679e-01
9.151190e-01
8.358093e-01
9.346506e-01
8.358093e-01
9.346506e-01
8.608014e-01
9.575578e-01
8.608014e-01
9.575578e-01
8.888150e-01
9.838338e-01
8.888150e-01
9.838338e-01
9.189398e-01
1.013462e+00
9.189398e-01
1.013462e+00
9.502624e-01
1.045977e+00
9.502624e-01
1.045977e+00
9.796356e-01
1.075330e+00
9.796356e-01
1.075330e+00
1.005945e+00
1.101591e+00
1.005945e+00
1.101591e+00
1.029327e+00
1.125198e+00
1.029327e+00
1.125198e+00
1.050098e+00
1.146198e+00
1.050098e+00
1.146198e+00
1.068548e+00
1.164786e+00
1.068548e+00
1.164786e+00
1.084931e+00
1.181207e+00
1.084931e+00
1.181207e+00
1.099470e+00
1.195702e+00
1.099470e+00
1.195702e+00
1.112357e+00
1.208489e+00
1.112357e+00
1.208489e+00
1.123756e+00
1.219754e+00
1.123756e+00
1.219754e+00
1.133805e+00
1.229652e+00
1.133805e+00
1.229652e+00
1.142619e+00
1.238312e+00
1.142619e+00
1.238312e+00
1.150294e+00
1.245837e+00
1.150294e+00
1.245837e+00
1.156909e+00
1.252312e+00
1.156909e+00
1.252312e+00
1.162528e+00
1.257806e+00
1.162528e+00
1.257806e+00
1.167203e+00
1.262374e+00
1.167203e+00
1.262374e+00
1.170976e+00
1.266058e+00
1.170976e+00
1.266058e+00
1.173879e+00
1.268891e+00
1.173879e+00
1.268891e+00
1.175936e+00
1.270898e+00
1.175936e+00
1.270898e+00
1.177164e+00
1.272096e+00
1.177164e+00
1.272096e+00
1.177573e+00
1.272494e+00
</DataArray>
<DataArray type="Float32" Name="V3" format="ascii">
0.000000e+00
0.000000e+00
1.772212e-02
1.209194e-02
1.772212e-02
1.209194e-02
3.506097e-02
2.384385e-02
3.506097e-02
2.384385e-02
5.162939e-02
3.492469e-02
5.162939e-02
3.492469e-02
6.703603e-02
4.502022e-02
6.703603e-02
4.502022e-02
8.087539e-02
5.384872e-02
8.087539e-02
5.384872e-02
9.271250e-02
6.117976e-02
9.271250e-02
6.117976e-02
1.020600e-01
6.685088e-02
1.020600e-01
6.685088e-02
1.083605e-01
7.075077e-02
1.083605e-01
7.075077e-02
1.110634e-01
7.269151e-02
1.110634e-01
7.269151e-02
1.101221e-01
7.168557e-02
1.101221e-01
7.168557e-02
1.076155e-01
7.010317e-02
1.076155e-01
7.010317e-02
1.036924e-01
6.918961e-02
1.036924e-01
6.918961e-02
9.927762e-02
6.845678e-02
9.927762e-02
6.845678e-02
9.462284e-02
6.755006e-02
9.462284e-02
6.755006e-02
8.980454e-02
6.625875e-02
8.980454e-02
6.625875e-02
8.484012e-02
6.448207e-02
8.484012e-02
6.448207e-02
7.972428e-02
6.218692e-02
7.972428e-02
6.218692e-02
7.444674e-02
5.937955e-02
7.444674e-02
5.937955e-02
6.899971e-02
5.608786e-02
6.899971e-02
5.608786e-02
6.338045e-02
5.235077e-02
6.338045e-02
5.235077e-02
5.759156e-02
4.821204e-02
5.759156e-02
4.821204e-02
5.164036e-02
4.371683e-02
5.164036e-02
4.371683e-02
4.553802e-02
3.890991e-02
4.553802e-02
3.890991e-02
3.929873e-02
3.383475e-02
3.929873e-02
3.383475e-02
3.293889e-02
2.853329e-02
3.293889e-02
2.853329e-02
2.647661e-02
2.304587e-02
2.647661e-02
2.304587e-02
1.993117e-02
1.741147e-02
1.993117e-02
1.741147e-02
1.332272e-02
1.166785e-02
1.332272e-02
1.166785e-02
6.671977e-03
5.851929e-03
6.671977e-03
5.851929e-03
0.000000e+00
0.000000e+00
</DataArray>
<DataArray type="Float32" Name="V4" format="ascii">
8.500000e-01
1.000000e+00
8.500000e-01
1.000000e+00
8.500000e-01
1.000000e+00
8.500000e-01
1.000000e+00
8.500000e-01
1.000000e+00
8.500000e-01
1.000000e+00
8.500000e-01
1.000000e+00
8.500000e-01
1.000000e+00
8.500000e-01
1.000000e+00
8.500000e-01
1.000000e+00
8.500000e-01
1.000000e+00
8.500000e-01
1.000000e+00
8.500000e-01
1.000000e+00
8.500000e-01
1.000000e+00
8.500000e-01
1.000000e+00
8.500000e-01
1.000000e+00
8.500000e-01
1.000000e+00
8.500000e-01
1.000000e+00
8.500000e-01
1.000000e+00
8.500000e-01
1.000000e+00
8.500000e-01
1.000000e+00
8.500000e-01
1.000000e+00
8.500000e-01
1.000000e+00
8.500000e-01
1.000000e+00
8.500000e-01
1.000000e+00
8.500000e-01
1.000000e+00
8.500000e-01
1.000000e+00
8.500000e-01
1.000000e+00
8.500000e-01
1.000000e+00
8.500000e-01
1.000000e+00
8.500000e-01
1.000000e+00
8.500000e-01
1.000000e+00
8.500000e-01
1.000000e+00
8.500000e-01
1.000000e+00
8.500000e-01
1.000000e+00
8.500000e-01
1.000000e+00
8.500000e-01
1.000000e+00
8.500000e-01
1.000000e+00
8.500000e-01
1.000000e+00
8.500000e-01
1.000000e+00
8.500000e-01
1.000000e+00
8.500000e-01
1.000000e+00
8.500000e-01
1.000000e+00
8.500000e-01
1.000000e+00
8.500000e-01
1.000000e+00
8.500000e-01
1.000000e+00
8.500000e-01
1.000000e+00
8.500000e-01
1.000000e+00
8.500000e-01
1.000000e+00
8.500000e-01
1.000000e+00
8.500000e-01
1.000000e+00
8.500000e-01
1.000000e+00
8.500000e-01
1.000000e+00
8.500000e-01
1.000000e+00
8.500000e-01
1.000000e+00
8.500000e-01
1.000000e+00
8.500000e-01
1.000000e+00
8.500000e-01
1.000000e+00
8.500000e-01
1.000000e+00
8.500000e-01
1.000000e+00
</DataArray>
<DataArray type="Float32" Name="V5" format="ascii">
0.000000e+00
0.000000e+00
5.235988e-02
5.235988e-02
5.235988e-02
5.235988e-02
1.047198e-01
1.047198e-01
1.047198e-01
1.047198e-01
1.570796e-01
1.570796e-01
1.570796e-01
1.570796e-01
2.094395e-01
2.094395e-01
2.094395e-01
2.094395e-01
2.617994e-01
2.617994e-01
2.617994e-01
2.617994e-01
3.141593e-01
3.141593e-01
3.141593e-01
3.141593e-01
3.665191e-01
3.665191e-01
3.665191e-01
3.665191e-01
4.188790e-01
4.188790e-01
4.188790e-01
4.188790e-01
4.712389e-01
4.712389e-01
4.712389e-01
4.712389e-01
5.235988e-01
5.235988e-01
5.235988e-01
5.235988e-01
5.759587e-01
5.759587e-01
5.759587e-01
5.759587e-01
6.283185e-01
6.283185e-01
6.283185e-01
6.283185e-01
6.806784e-01
6.806784e-01
6.806784e-01
6.806784e-01
7.330383e-01
7.330383e-01
7.330383e-01
7.330383e-01
7.853982e-01
7.853982e-01
7.853982e-01
7.853982e-01
8.377580e-01
8.377580e-01
8.377580e-01
8.377580e-01
8.901179e-01
8.901179e-01
8.901179e-01
8.901179e-01
9.424778e-01
9.424778e-01
9.424778e-01
9.424778e-01
9.948377e-01
9.948377e-01
9.948377e-01
9.948377e-01
1.047198e+00
1.047198e+00
1.047198e+00
1.047198e+00
1.099557e+00
1.099557e+00
1.099557e+00
1.099557e+00
1.151917e+00
1.151917e+00
1.151917e+00
1.151917e+00
1.204277e+00
1.204277e+00
1.204277e+00
1.204277e+00
1.256637e+00
1.256637e+00
1.256637e+00
1.256637e+00
1.308997e+00
1.308997e+00
1.308997e+00
1.308997e+00
1.361357e+00
1.361357e+00
1.361357e+00
1.361357e+00
1.413717e+00
1.413717e+00
1.413717e+00
1.413717e+00
1.466077e+00
1.466077e+00
1.466077e+00
1.466077e+00
1.518436e+00
1.518436e+00
1.518436e+00
1.518436e+00
1.570796e+00
1.570796e+00
</DataArray>
</PointData>
</Piece></UnstructuredGrid>
</VTKFile>
