<?xml version="1.0"?>
<VTKFile type="UnstructuredGrid" version="0.1" byte_order="LittleEndian" compressor="vtkZLibDataCompressor">
<UnstructuredGrid>
<Piece NumberOfPoints="120" NumberOfCells="30">
<Points>
<DataArray type="Float32" NumberOfComponents="3" format="ascii">
0.000000e+00 3.670678e-01 0.000000e+00
0.000000e+00 4.000000e-01 0.000000e+00
1.035561e-01 3.671147e-01 0.000000e+00
1.035485e-01 4.000000e-01 0.000000e+00
1.035561e-01 3.671147e-01 0.000000e+00
1.035485e-01 4.000000e-01 0.000000e+00
2.071042e-01 3.671545e-01 0.000000e+00
2.070896e-01 4.000000e-01 0.000000e+00
2.071042e-01 3.671545e-01 0.000000e+00
2.070896e-01 4.000000e-01 0.000000e+00
3.106304e-01 3.672185e-01 0.000000e+00
3.106084e-01 4.000000e-01 0.000000e+00
3.106304e-01 3.672185e-01 0.000000e+00
3.106084e-01 4.000000e-01 0.000000e+00
4.141240e-01 3.673080e-01 0.000000e+00
4.140941e-01 4.000000e-01 0.000000e+00
4.141240e-01 3.673080e-01 0.000000e+00
4.140941e-01 4.000000e-01 0.000000e+00
5.175735e-01 3.674226e-01 0.000000e+00
5.175353e-01 4.000000e-01 0.000000e+00
5.175735e-01 3.674226e-01 0.000000e+00
5.175353e-01 4.000000e-01 0.000000e+00
6.209672e-01 3.675623e-01 0.000000e+00
6.209200e-01 4.000000e-01 0.000000e+00
6.209672e-01 3.675623e-01 0.000000e+00
6.209200e-01 4.000000e-01 0.000000e+00
7.242925e-01 3.677265e-01 0.000000e+00
7.242357e-01 4.000000e-01 0.000000e+00
7.242925e-01 3.677265e-01 0.000000e+00
7.242357e-01 4.000000e-01 0.000000e+00
8.275365e-01 3.679149e-01 0.000000e+00
8.274691e-01 4.000000e-01 0.000000e+00
8.275365e-01 3.679149e-01 0.000000e+00
8.274691e-01 4.000000e-01 0.000000e+00
9.306850e-01 3.681270e-01 0.000000e+00
9.306059e-01 4.000000e-01 0.000000e+00
9.306850e-01 3.681270e-01 0.000000e+00
9.306059e-01 4.000000e-01 0.000000e+00
1.033723e+00 3.683623e-01 0.000000e+00
1.033631e+00 4.000000e-01 0.000000e+00
1.033723e+00 3.683623e-01 0.000000e+00
1.033631e+00 4.000000e-01 0.000000e+00
1.136634e+00 3.686203e-01 0.000000e+00
1.136528e+00 4.000000e-01 0.000000e+00
1.136634e+00 3.686203e-01 0.000000e+00
1.136528e+00 4.000000e-01 0.000000e+00
1.239401e+00 3.689001e-01 0.000000e+00
1.239281e+00 4.000000e-01 0.000000e+00
1.239401e+00 3.689001e-01 0.000000e+00
1.239281e+00 4.000000e-01 0.000000e+00
1.342005e+00 3.692012e-01 0.000000e+00
1.341869e+00 4.000000e-01 0.000000e+00
1.342005e+00 3.692012e-01 0.000000e+00
1.341869e+00 4.000000e-01 0.000000e+00
1.444425e+00 3.695225e-01 0.000000e+00
1.444274e+00 4.000000e-01 0.000000e+00
1.444425e+00 3.695225e-01 0.000000e+00
1.444274e+00 4.000000e-01 0.000000e+00
1.546636e+00 3.698628e-01 0.000000e+00
1.546475e+00 4.000000e-01 0.000000e+00
1.546636e+00 3.698628e-01 0.000000e+00
1.546475e+00 4.000000e-01 0.000000e+00
1.648613e+00 3.702205e-01 0.000000e+00
1.648451e+00 4.000000e-01 0.000000e+00
1.648613e+00 3.702205e-01 0.000000e+00
1.648451e+00 4.000000e-01 0.000000e+00
1.750323e+00 3.705929e-01 0.000000e+00
1.750182e+00 4.000000e-01 0.000000e+00
1.750323e+00 3.705929e-01 0.000000e+00
1.750182e+00 4.000000e-01 0.000000e+00
1.851731e+00 3.709757e-01 0.000000e+00
1.851653e+00 4.000000e-01 0.000000e+00
1.851731e+00 3.709757e-01 0.000000e+00
1.851653e+00 4.000000e-01 0.000000e+00
1.952788e+00 3.713632e-01 0.000000e+00
1.952857e+00 4.000000e-01 0.000000e+00
1.952788e+00 3.713632e-01 0.000000e+00
1.952857e+00 4.000000e-01 0.000000e+00
2.053434e+00 3.717492e-01 0.000000e+00
2.053811e+00 4.000000e-01 0.000000e+00
2.053434e+00 3.717492e-01 0.000000e+00
2.053811e+00 4.000000e-01 0.000000e+00
2.153579e+00 3.721356e-01 0.000000e+00
2.154586e+00 4.000000e-01 0.000000e+00
2.153579e+00 3.721356e-01 0.000000e+00
2.154586e+00 4.000000e-01 0.000000e+00
2.253084e+00 3.725542e-01 0.000000e+00
2.255346e+00 4.000000e-01 0.000000e+00
2.253084e+00 3.725542e-01 0.000000e+00
2.255346e+00 4.000000e-01 0.000000e+00
2.351711e+00 3.730965e-01 0.000000e+00
2.356376e+00 4.000000e-01 0.000000e+00
2.351711e+00 3.730965e-01 0.000000e+00
2.356376e+00 4.000000e-01 0.000000e+00
2.449821e+00 3.739858e-01 0.000000e+00
2.458485e+00 4.000000e-01 0.000000e+00
2.449821e+00 3.739858e-01 0.000000e+00
2.458485e+00 4.000000e-01 0.000000e+00
2.547850e+00 3.608830e-01 0.000000e+00
2.558913e+00 3.841408e-01 0.000000e+00
2.547850e+00 3.608830e-01 0.000000e+00
2.558913e+00 3.841408e-01 0.000000e+00
2.631249e+00 3.183743e-01 0.000000e+00
2.645648e+00 3.389799e-01 0.000000e+00
2.631249e+00 3.183743e-01 0.000000e+00
2.645648e+00 3.389799e-01 0.000000e+00
2.697798e+00 2.554422e-01 0.000000e+00
2.716359e+00 2.721697e-01 0.000000e+00
2.697798e+00 2.554422e-01 0.000000e+00
2.716359e+00 2.721697e-01 0.000000e+00
2.746013e+00 1.782186e-01 0.000000e+00
2.768016e+00 1.899166e-01 0.000000e+00
2.746013e+00 1.782186e-01 0.000000e+00
2.768016e+00 1.899166e-01 0.000000e+00
2.775333e+00 9.153727e-02 0.000000e+00
2.799326e+00 9.752156e-02 0.000000e+00
2.775333e+00 9.153727e-02 0.000000e+00
2.799326e+00 9.752156e-02 0.000000e+00
2.785266e+00 1.363830e-11 0.000000e+00
2.809869e+00 1.375877e-11 0.000000e+00
</DataArray>
</Points>
<Cells>
<DataArray type="Int32" Name="connectivity" format="ascii">
0 1 3 2
4 5 7 6
8 9 11 10
12 13 15 14
16 17 19 18
20 21 23 22
24 25 27 26
28 29 31 30
32 33 35 34
36 37 39 38
40 41 43 42
44 45 47 46
48 49 51 50
52 53 55 54
56 57 59 58
60 61 63 62
64 65 67 66
68 69 71 70
72 73 75 74
76 77 79 78
80 81 83 82
84 85 87 86
88 89 91 90
92 93 95 94
96 97 99 98
100 101 103 102
104 105 107 106
108 109 111 110
112 113 115 114
116 117 119 118
</DataArray>
<DataArray type="Int32" Name="offsets" format="ascii">
4
8
12
16
20
24
28
32
36
40
44
48
52
56
60
64
68
72
76
80
84
88
92
96
100
104
108
112
116
120
</DataArray>
<DataArray type="UInt8" Name="types" format="ascii">
9
9
9
9
9
9
9
9
9
9
9
9
9
9
9
9
9
9
9
9
9
9
9
9
9
9
9
9
9
9
</DataArray>
</Cells>
<PointData>
<DataArray type="Float32" Name="V1" format="ascii">
1.254083e+03
1.832114e+02
1.255364e+03
1.844925e+02
1.256996e+03
1.832828e+02
1.260528e+03
1.868145e+02
1.263896e+03
1.844951e+02
1.269776e+03
1.903746e+02
1.274926e+03
1.869096e+02
1.283208e+03
1.951913e+02
1.290198e+03
1.905470e+02
1.300980e+03
2.013287e+02
1.309884e+03
1.954497e+02
1.323296e+03
2.088610e+02
1.334213e+03
2.016772e+02
1.350417e+03
2.178809e+02
1.363473e+03
2.093066e+02
1.382669e+03
2.285029e+02
1.398017e+03
2.184342e+02
1.420449e+03
2.408664e+02
1.438275e+03
2.291782e+02
1.464236e+03
2.551401e+02
1.484760e+03
2.416830e+02
1.514605e+03
2.715274e+02
1.538088e+03
2.561232e+02
1.572239e+03
2.902744e+02
1.598984e+03
2.727108e+02
1.637953e+03
3.116796e+02
1.668306e+03
2.917043e+02
1.712711e+03
3.361096e+02
1.747059e+03
3.134216e+02
1.797657e+03
3.640201e+02
1.836410e+03
3.382612e+02
1.894139e+03
3.959908e+02
1.937697e+03
3.667357e+02
2.003739e+03
4.327775e+02
2.052419e+03
3.995314e+02
2.128285e+03
4.753977e+02
2.182185e+03
4.376247e+02
2.269828e+03
5.252671e+02
2.328591e+03
4.825319e+02
2.430478e+03
5.844182e+02
2.492929e+03
5.368976e+02
2.611904e+03
6.558730e+02
2.675449e+03
6.059048e+02
2.813996e+03
7.444514e+02
2.873128e+03
7.002430e+02
3.032222e+03
8.593373e+02
3.070534e+03
8.390997e+02
3.258553e+03
1.027119e+03
3.283090e+03
1.055030e+03
3.472699e+03
1.244639e+03
3.510400e+03
1.257064e+03
3.703865e+03
1.450530e+03
3.775534e+03
1.422759e+03
3.962492e+03
1.609717e+03
4.052027e+03
1.554311e+03
4.199685e+03
1.701969e+03
4.292732e+03
1.641337e+03
4.383641e+03
1.732246e+03
4.442606e+03
1.694482e+03
4.473651e+03
1.725527e+03
</DataArray>
<DataArray type="Float32" Name="V2" format="ascii">
3.670678e-01
4.000000e-01
3.720313e-01
4.048711e-01
3.720313e-01
4.048711e-01
3.867914e-01
4.194555e-01
3.867914e-01
4.194555e-01
4.112908e-01
4.436652e-01
4.112908e-01
4.436652e-01
4.453826e-01
4.773540e-01
4.453826e-01
4.773540e-01
4.888609e-01
5.203183e-01
4.888609e-01
5.203183e-01
5.414619e-01
5.722975e-01
5.414619e-01
5.722975e-01
6.028655e-01
6.329751e-01
6.028655e-01
6.329751e-01
6.726964e-01
7.019802e-01
6.726964e-01
7.019802e-01
7.505257e-01
7.788889e-01
7.505257e-01
7.788889e-01
8.358726e-01
8.632257e-01
8.358726e-01
8.632257e-01
9.282064e-01
9.544660e-01
9.282064e-01
9.544660e-01
1.026948e+00
1.052038e+00
1.026948e+00
1.052038e+00
1.131474e+00
1.155324e+00
1.131474e+00
1.155324e+00
1.241117e+00
1.263666e+00
1.241117e+00
1.263666e+00
1.355169e+00
1.376366e+00
1.355169e+00
1.376366e+00
1.472884e+00
1.492690e+00
1.472884e+00
1.492690e+00
1.593478e+00
1.611875e+00
1.593478e+00
1.611875e+00
1.716136e+00
1.733133e+00
1.716136e+00
1.733133e+00
1.840005e+00
1.855659e+00
1.840005e+00
1.855659e+00
1.964200e+00
1.978652e+00
1.964200e+00
1.978652e+00
2.087799e+00
2.101346e+00
2.087799e+00
2.101346e+00
2.209826e+00
2.223055e+00
2.209826e+00
2.223055e+00
2.329218e+00
2.343214e+00
2.329218e+00
2.343214e+00
2.445486e+00
2.461765e+00
2.445486e+00
2.461765e+00
2.554437e+00
2.571143e+00
2.554437e+00
2.571143e+00
2.639944e+00
2.658312e+00
2.639944e+00
2.658312e+00
2.704543e+00
2.725493e+00
2.704543e+00
2.725493e+00
2.749599e+00
2.772704e+00
2.749599e+00
2.772704e+00
2.776321e+00
2.800594e+00
2.776321e+00
2.800594e+00
2.785266e+00
2.809869e+00
</DataArray>
<DataArray type="Float32" Name="V3" format="ascii">
0.000000e+00
0.000000e+00
8.420087e-02
8.247226e-02
8.420087e-02
8.247226e-02
1.675915e-01
1.641437e-01
1.675915e-01
1.641437e-01
2.493604e-01
2.442105e-01
2.493604e-01
2.442105e-01
3.287068e-01
3.218805e-01
3.287068e-01
3.218805e-01
4.048416e-01
3.963731e-01
4.048416e-01
3.963731e-01
4.769919e-01
4.669233e-01
4.769919e-01
4.669233e-01
5.444039e-01
5.327851e-01
5.444039e-01
5.327851e-01
6.063477e-01
5.932360e-01
6.063477e-01
5.932360e-01
6.621202e-01
6.475798e-01
6.621202e-01
6.475798e-01
7.110492e-01
6.951508e-01
7.110492e-01
6.951508e-01
7.524968e-01
7.353174e-01
7.524968e-01
7.353174e-01
7.858628e-01
7.674850e-01
7.858628e-01
7.674850e-01
8.105882e-01
7.910999e-01
8.105882e-01
7.910999e-01
8.261579e-01
8.056525e-01
8.261579e-01
8.056525e-01
8.321042e-01
8.106802e-01
8.321042e-01
8.106802e-01
8.280096e-01
8.057711e-01
8.280096e-01
8.057711e-01
8.135094e-01
7.905671e-01
8.135094e-01
7.905671e-01
7.882945e-01
7.647675e-01
7.882945e-01
7.647675e-01
7.521135e-01
7.281337e-01
7.521135e-01
7.281337e-01
7.047727e-01
6.804953e-01
7.047727e-01
6.804953e-01
6.461292e-01
6.217589e-01
6.461292e-01
6.217589e-01
5.760665e-01
5.519135e-01
5.760665e-01
5.519135e-01
4.944624e-01
4.710175e-01
4.944624e-01
4.710175e-01
4.013547e-01
3.792910e-01
4.013547e-01
3.792910e-01
3.108459e-01
2.912438e-01
3.108459e-01
2.912438e-01
2.356504e-01
2.184887e-01
2.356504e-01
2.184887e-01
1.697312e-01
1.561133e-01
1.697312e-01
1.561133e-01
1.097942e-01
1.004603e-01
1.097942e-01
1.004603e-01
5.383791e-02
4.911750e-02
5.383791e-02
4.911750e-02
0.000000e+00
0.000000e+00
</DataArray>
<DataArray type="Float32" Name="V4" format="ascii">
8.500000e-01
1.000000e+00
8.500000e-01
1.000000e+00
8.500000e-01
1.000000e+00
8.500000e-01
1.000000e+00
8.500000e-01
1.000000e+00
8.500000e-01
1.000000e+00
8.500000e-01
1.000000e+00
8.500000e-01
1.000000e+00
8.500000e-01
1.000000e+00
8.500000e-01
1.000000e+00
8.500000e-01
1.000000e+00
8.500000e-01
1.000000e+00
8.500000e-01
1.000000e+00
8.500000e-01
1.000000e+00
8.500000e-01
1.000000e+00
8.500000e-01
1.000000e+00
8.500000e-01
1.000000e+00
8.500000e-01
1.000000e+00
8.500000e-01
1.000000e+00
8.500000e-01
1.000000e+00
8.500000e-01
1.000000e+00
8.500000e-01
1.000000e+00
8.500000e-01
1.000000e+00
8.500000e-01
1.000000e+00
8.500000e-01
1.000000e+00
8.500000e-01
1.000000e+00
8.500000e-01
1.000000e+00
8.500000e-01
1.000000e+00
8.500000e-01
1.000000e+00
8.500000e-01
1.000000e+00
8.500000e-01
1.000000e+00
8.500000e-01
1.000000e+00
8.500000e-01
1.000000e+00
8.500000e-01
1.000000e+00
8.500000e-01
1.000000e+00
8.500000e-01
1.000000e+00
8.500000e-01
1.000000e+00
8.500000e-01
1.000000e+00
8.500000e-01
1.000000e+00
8.500000e-01
1.000000e+00
8.500000e-01
1.000000e+00
8.500000e-01
1.000000e+00
8.500000e-01
1.000000e+00
8.500000e-01
1.000000e+00
8.500000e-01
1.000000e+00
8.500000e-01
1.000000e+00
8.500000e-01
1.000000e+00
8.500000e-01
1.000000e+00
8.500000e-01
1.000000e+00
8.500000e-01
1.000000e+00
8.500000e-01
1.000000e+00
8.500000e-01
1.000000e+00
8.500000e-01
1.000000e+00
8.500000e-01
1.000000e+00
8.500000e-01
1.000000e+00
8.500000e-01
1.000000e+00
8.500000e-01
1.000000e+00
8.500000e-01
1.000000e+00
8.500000e-01
1.000000e+00
8.500000e-01
1.000000e+00
</DataArray>
<DataArray type="Float32" Name="V5" format="ascii">
0.000000e+00
0.000000e+00
5.235988e-02
5.235988e-02
5.235988e-02
5.235988e-02
1.047198e-01
1.047198e-01
1.047198e-01
1.047198e-01
1.570796e-01
1.570796e-01
1.570796e-01
1.570796e-01
2.094395e-01
2.094395e-01
2.094395e-01
2.094395e-01
2.617994e-01
2.617994e-01
2.617994e-01
2.617994e-01
3.141593e-01
3.141593e-01
3.141593e-01
3.141593e-01
3.665191e-01
3.665191e-01
3.665191e-01
3.665191e-01
4.188790e-01
4.188790e-01
4.188790e-01
4.188790e-01
4.712389e-01
4.712389e-01
4.712389e-01
4.712389e-01
5.235988e-01
5.235988e-01
5.235988e-01
5.235988e-01
5.759587e-01
5.759587e-01
5.759587e-01
5.759587e-01
6.283185e-01
6.283185e-01
6.283185e-01
6.283185e-01
6.806784e-01
6.806784e-01
6.806784e-01
6.806784e-01
7.330383e-01
7.330383e-01
7.330383e-01
7.330383e-01
7.853982e-01
7.853982e-01
7.853982e-01
7.853982e-01
8.377580e-01
8.377580e-01
8.377580e-01
8.377580e-01
8.901179e-01
8.901179e-01
8.901179e-01
8.901179e-01
9.424778e-01
9.424778e-01
9.424778e-01
9.424778e-01
9.948377e-01
9.948377e-01
9.948377e-01
9.948377e-01
1.047198e+00
1.047198e+00
1.047198e+00
1.047198e+00
1.099557e+00
1.099557e+00
1.099557e+00
1.099557e+00
1.151917e+00
1.151917e+00
1.151917e+00
1.151917e+00
1.204277e+00
1.204277e+00
1.204277e+00
1.204277e+00
1.256637e+00
1.256637e+00
1.256637e+00
1.256637e+00
1.308997e+00
1.308997e+00
1.308997e+00
1.308997e+00
1.361357e+00
1.361357e+00
1.361357e+00
1.361357e+00
1.413717e+00
1.413717e+00
1.413717e+00
1.413717e+00
1.466077e+00
1.466077e+00
1.466077e+00
1.466077e+00
1.518436e+00
1.518436e+00
1.518436e+00
1.518436e+00
1.570796e+00
1.570796e+00
</DataArray>
</PointData>
</Piece></UnstructuredGrid>
</VTKFile>
