<?xml version="1.0"?>
<VTKFile type="UnstructuredGrid" version="0.1" byte_order="LittleEndian" compressor="vtkZLibDataCompressor">
<UnstructuredGrid>
<Piece NumberOfPoints="120" NumberOfCells="30">
<Points>
<DataArray type="Float32" NumberOfComponents="3" format="ascii">
0.000000e+00 5.384817e-01 0.000000e+00
0.000000e+00 6.200000e-01 0.000000e+00
6.581700e-02 5.385273e-01 0.000000e+00
6.574363e-02 6.200000e-01 0.000000e+00
6.581700e-02 5.385273e-01 0.000000e+00
6.574363e-02 6.200000e-01 0.000000e+00
1.316301e-01 5.386266e-01 0.000000e+00
1.314823e-01 6.200000e-01 0.000000e+00
1.316301e-01 5.386266e-01 0.000000e+00
1.314823e-01 6.200000e-01 0.000000e+00
1.974322e-01 5.387921e-01 0.000000e+00
1.972116e-01 6.200000e-01 0.000000e+00
1.974322e-01 5.387921e-01 0.000000e+00
1.972116e-01 6.200000e-01 0.000000e+00
2.632177e-01 5.390230e-01 0.000000e+00
2.629264e-01 6.200000e-01 0.000000e+00
2.632177e-01 5.390230e-01 0.000000e+00
2.629264e-01 6.200000e-01 0.000000e+00
3.289805e-01 5.393183e-01 0.000000e+00
3.286215e-01 6.200000e-01 0.000000e+00
3.289805e-01 5.393183e-01 0.000000e+00
3.286215e-01 6.200000e-01 0.000000e+00
3.947133e-01 5.396771e-01 0.000000e+00
3.942921e-01 6.200000e-01 0.000000e+00
3.947133e-01 5.396771e-01 0.000000e+00
3.942921e-01 6.200000e-01 0.000000e+00
4.604076e-01 5.400981e-01 0.000000e+00
4.599338e-01 6.200000e-01 0.000000e+00
4.604076e-01 5.400981e-01 0.000000e+00
4.599338e-01 6.200000e-01 0.000000e+00
5.260531e-01 5.405800e-01 0.000000e+00
5.255436e-01 6.200000e-01 0.000000e+00
5.260531e-01 5.405800e-01 0.000000e+00
5.255436e-01 6.200000e-01 0.000000e+00
5.916362e-01 5.411220e-01 0.000000e+00
5.911216e-01 6.200000e-01 0.000000e+00
5.916362e-01 5.411220e-01 0.000000e+00
5.911216e-01 6.200000e-01 0.000000e+00
6.571381e-01 5.417233e-01 0.000000e+00
6.566750e-01 6.200000e-01 0.000000e+00
6.571381e-01 5.417233e-01 0.000000e+00
6.566750e-01 6.200000e-01 0.000000e+00
7.225312e-01 5.423841e-01 0.000000e+00
7.222243e-01 6.200000e-01 0.000000e+00
7.225312e-01 5.423841e-01 0.000000e+00
7.222243e-01 6.200000e-01 0.000000e+00
7.877709e-01 5.431059e-01 0.000000e+00
7.878159e-01 6.200000e-01 0.000000e+00
7.877709e-01 5.431059e-01 0.000000e+00
7.878159e-01 6.200000e-01 0.000000e+00
8.527819e-01 5.438910e-01 0.000000e+00
8.535433e-01 6.200000e-01 0.000000e+00
8.527819e-01 5.438910e-01 0.000000e+00
8.535433e-01 6.200000e-01 0.000000e+00
9.174280e-01 5.447393e-01 0.000000e+00
9.195807e-01 6.200000e-01 0.000000e+00
9.174280e-01 5.447393e-01 0.000000e+00
9.195807e-01 6.200000e-01 0.000000e+00
9.814493e-01 5.456284e-01 0.000000e+00
9.862191e-01 6.200000e-01 0.000000e+00
9.814493e-01 5.456284e-01 0.000000e+00
9.862191e-01 6.200000e-01 0.000000e+00
1.044321e+00 5.463899e-01 0.000000e+00
1.053812e+00 6.200000e-01 0.000000e+00
1.044321e+00 5.463899e-01 0.000000e+00
1.053812e+00 6.200000e-01 0.000000e+00
1.105619e+00 5.467208e-01 0.000000e+00
1.121357e+00 6.200000e-01 0.000000e+00
1.105619e+00 5.467208e-01 0.000000e+00
1.121357e+00 6.200000e-01 0.000000e+00
1.165385e+00 5.406473e-01 0.000000e+00
1.186607e+00 6.115197e-01 0.000000e+00
1.165385e+00 5.406473e-01 0.000000e+00
1.186607e+00 6.115197e-01 0.000000e+00
1.221912e+00 5.245839e-01 0.000000e+00
1.250237e+00 5.917053e-01 0.000000e+00
1.221912e+00 5.245839e-01 0.000000e+00
1.250237e+00 5.917053e-01 0.000000e+00
1.274830e+00 5.001430e-01 0.000000e+00
1.310628e+00 5.625189e-01 0.000000e+00
1.274830e+00 5.001430e-01 0.000000e+00
1.310628e+00 5.625189e-01 0.000000e+00
1.323623e+00 4.683383e-01 0.000000e+00
1.366363e+00 5.251856e-01 0.000000e+00
1.323623e+00 4.683383e-01 0.000000e+00
1.366363e+00 5.251856e-01 0.000000e+00
1.367892e+00 4.302616e-01 0.000000e+00
1.416683e+00 4.810612e-01 0.000000e+00
1.367892e+00 4.302616e-01 0.000000e+00
1.416683e+00 4.810612e-01 0.000000e+00
1.407337e+00 3.868940e-01 0.000000e+00
1.461202e+00 4.313631e-01 0.000000e+00
1.407337e+00 3.868940e-01 0.000000e+00
1.461202e+00 4.313631e-01 0.000000e+00
1.441751e+00 3.391244e-01 0.000000e+00
1.499757e+00 3.771471e-01 0.000000e+00
1.441751e+00 3.391244e-01 0.000000e+00
1.499757e+00 3.771471e-01 0.000000e+00
1.471000e+00 2.877515e-01 0.000000e+00
1.532304e+00 3.193145e-01 0.000000e+00
1.471000e+00 2.877515e-01 0.000000e+00
1.532304e+00 3.193145e-01 0.000000e+00
1.495000e+00 2.334947e-01 0.000000e+00
1.558856e+00 2.586381e-01 0.000000e+00
1.495000e+00 2.334947e-01 0.000000e+00
1.558856e+00 2.586381e-01 0.000000e+00
1.513700e+00 1.770072e-01 0.000000e+00
1.579450e+00 1.957916e-01 0.000000e+00
1.513700e+00 1.770072e-01 0.000000e+00
1.579450e+00 1.957916e-01 0.000000e+00
1.527071e+00 1.188907e-01 0.000000e+00
1.594126e+00 1.313753e-01 0.000000e+00
1.527071e+00 1.188907e-01 0.000000e+00
1.594126e+00 1.313753e-01 0.000000e+00
1.535098e+00 5.970870e-02 0.000000e+00
1.602916e+00 6.593884e-02 0.000000e+00
1.535098e+00 5.970870e-02 0.000000e+00
1.602916e+00 6.593884e-02 0.000000e+00
1.537775e+00 7.529850e-12 0.000000e+00
1.605844e+00 7.863160e-12 0.000000e+00
</DataArray>
</Points>
<Cells>
<DataArray type="Int32" Name="connectivity" format="ascii">
0 1 3 2
4 5 7 6
8 9 11 10
12 13 15 14
16 17 19 18
20 21 23 22
24 25 27 26
28 29 31 30
32 33 35 34
36 37 39 38
40 41 43 42
44 45 47 46
48 49 51 50
52 53 55 54
56 57 59 58
60 61 63 62
64 65 67 66
68 69 71 70
72 73 75 74
76 77 79 78
80 81 83 82
84 85 87 86
88 89 91 90
92 93 95 94
96 97 99 98
100 101 103 102
104 105 107 106
108 109 111 110
112 113 115 114
116 117 119 118
</DataArray>
<DataArray type="Int32" Name="offsets" format="ascii">
4
8
12
16
20
24
28
32
36
40
44
48
52
56
60
64
68
72
76
80
84
88
92
96
100
104
108
112
116
120
</DataArray>
<DataArray type="UInt8" Name="types" format="ascii">
9
9
9
9
9
9
9
9
9
9
9
9
9
9
9
9
9
9
9
9
9
9
9
9
9
9
9
9
9
9
</DataArray>
</Cells>
<PointData>
<DataArray type="Float32" Name="V1" format="ascii">
3.715592e+01
-4.710573e-01
3.720064e+01
-4.263359e-01
3.727239e+01
-4.728480e-01
3.739632e+01
-3.489127e-01
3.754239e+01
-4.440914e-01
3.775248e+01
-2.340058e-01
3.797208e+01
-3.791155e-01
3.827053e+01
-8.065994e-02
3.856593e+01
-2.770790e-01
3.895619e+01
1.131775e-01
3.933003e+01
-1.363033e-01
3.981681e+01
3.504743e-01
4.027182e+01
4.597550e-02
4.086131e+01
6.354625e-01
4.139952e+01
2.742090e-01
4.209968e+01
9.743741e-01
4.272089e+01
5.557271e-01
4.354200e+01
1.376843e+00
4.424064e+01
9.030253e-01
4.519619e+01
1.858576e+00
4.595506e+01
1.338260e+00
4.706334e+01
2.446544e+00
4.784125e+01
1.902154e+00
4.912820e+01
3.189111e+00
4.983593e+01
2.671920e+00
5.133993e+01
4.175919e+00
5.179464e+01
3.798305e+00
5.357353e+01
5.577191e+00
5.341586e+01
5.584022e+00
5.555699e+01
7.725158e+00
5.410029e+01
8.648026e+00
5.678117e+01
1.132891e+01
5.246752e+01
1.485906e+01
5.640849e+01
1.880003e+01
5.081178e+01
2.409584e+01
5.444228e+01
2.772633e+01
5.203930e+01
2.898622e+01
5.489238e+01
3.183930e+01
5.469542e+01
3.199865e+01
5.747519e+01
3.477842e+01
5.820277e+01
3.422651e+01
6.086207e+01
3.688581e+01
6.203143e+01
3.596397e+01
6.449801e+01
3.843055e+01
6.582485e+01
3.737312e+01
6.804288e+01
3.959115e+01
6.936500e+01
3.853925e+01
7.130197e+01
4.047622e+01
7.252296e+01
3.951101e+01
7.416312e+01
4.115117e+01
7.522636e+01
4.031714e+01
7.656436e+01
4.165513e+01
7.743730e+01
4.097538e+01
7.847337e+01
4.201145e+01
7.913795e+01
4.149707e+01
7.987475e+01
4.223387e+01
8.032149e+01
4.188965e+01
8.076206e+01
4.233022e+01
8.098635e+01
4.215787e+01
8.113294e+01
4.230446e+01
</DataArray>
<DataArray type="Float32" Name="V2" format="ascii">
5.384817e-01
6.200000e-01
5.412339e-01
6.225911e-01
5.412339e-01
6.225911e-01
5.494351e-01
6.303472e-01
5.494351e-01
6.303472e-01
5.630439e-01
6.432175e-01
5.630439e-01
6.432175e-01
5.819701e-01
6.611170e-01
5.819701e-01
6.611170e-01
6.060879e-01
6.839275e-01
6.060879e-01
6.839275e-01
6.352365e-01
7.114980e-01
6.352365e-01
7.114980e-01
6.692203e-01
7.436454e-01
6.692203e-01
7.436454e-01
7.078095e-01
7.801560e-01
7.078095e-01
7.801560e-01
7.507404e-01
8.207876e-01
7.507404e-01
8.207876e-01
7.977152e-01
8.652733e-01
7.977152e-01
8.652733e-01
8.484003e-01
9.133273e-01
8.484003e-01
9.133273e-01
9.024220e-01
9.646571e-01
9.024220e-01
9.646571e-01
9.593557e-01
1.018983e+00
9.593557e-01
1.018983e+00
1.018699e+00
1.076069e+00
1.018699e+00
1.076069e+00
1.079807e+00
1.135768e+00
1.079807e+00
1.135768e+00
1.141688e+00
1.197996e+00
1.141688e+00
1.197996e+00
1.203290e+00
1.261637e+00
1.203290e+00
1.261637e+00
1.260601e+00
1.319428e+00
1.260601e+00
1.319428e+00
1.310490e+00
1.370803e+00
1.310490e+00
1.370803e+00
1.354107e+00
1.416297e+00
1.354107e+00
1.416297e+00
1.391978e+00
1.455868e+00
1.391978e+00
1.455868e+00
1.424635e+00
1.489870e+00
1.424635e+00
1.489870e+00
1.452512e+00
1.518736e+00
1.452512e+00
1.518736e+00
1.475982e+00
1.542899e+00
1.475982e+00
1.542899e+00
1.495353e+00
1.562737e+00
1.495353e+00
1.562737e+00
1.510877e+00
1.578565e+00
1.510877e+00
1.578565e+00
1.522754e+00
1.590633e+00
1.522754e+00
1.590633e+00
1.531133e+00
1.599125e+00
1.531133e+00
1.599125e+00
1.536119e+00
1.604171e+00
1.536119e+00
1.604171e+00
1.537775e+00
1.605844e+00
</DataArray>
<DataArray type="Float32" Name="V3" format="ascii">
0.000000e+00
0.000000e+00
3.754246e-02
3.320524e-02
3.754246e-02
3.320524e-02
7.460717e-02
6.595441e-02
7.460717e-02
6.595441e-02
1.107158e-01
9.779426e-02
1.107158e-01
9.779426e-02
1.453966e-01
1.282755e-01
1.453966e-01
1.282755e-01
1.781849e-01
1.569562e-01
1.781849e-01
1.569562e-01
2.086252e-01
1.834036e-01
2.086252e-01
1.834036e-01
2.362737e-01
2.071971e-01
2.362737e-01
2.071971e-01
2.606997e-01
2.279312e-01
2.606997e-01
2.279312e-01
2.814874e-01
2.452191e-01
2.814874e-01
2.452191e-01
2.982367e-01
2.586972e-01
2.982367e-01
2.586972e-01
3.105621e-01
2.680321e-01
3.105621e-01
2.680321e-01
3.180904e-01
2.729296e-01
3.180904e-01
2.729296e-01
3.204543e-01
2.731491e-01
3.204543e-01
2.731491e-01
3.172802e-01
2.685207e-01
3.172802e-01
2.685207e-01
3.081719e-01
2.589560e-01
3.081719e-01
2.589560e-01
2.927401e-01
2.443882e-01
2.927401e-01
2.443882e-01
2.709068e-01
2.238626e-01
2.709068e-01
2.238626e-01
2.476034e-01
2.027404e-01
2.476034e-01
2.027404e-01
2.255478e-01
1.846820e-01
2.255478e-01
1.846820e-01
2.042783e-01
1.681583e-01
2.042783e-01
1.681583e-01
1.836199e-01
1.523720e-01
1.836199e-01
1.523720e-01
1.633083e-01
1.367456e-01
1.633083e-01
1.367456e-01
1.431477e-01
1.209358e-01
1.431477e-01
1.209358e-01
1.229991e-01
1.047622e-01
1.229991e-01
1.047622e-01
1.027763e-01
8.815539e-02
1.027763e-01
8.815539e-02
8.243572e-02
7.111822e-02
8.243572e-02
7.111822e-02
6.196681e-02
5.369939e-02
6.196681e-02
5.369939e-02
4.138294e-02
3.597591e-02
4.138294e-02
3.597591e-02
2.071397e-02
1.804169e-02
2.071397e-02
1.804169e-02
0.000000e+00
0.000000e+00
</DataArray>
<DataArray type="Float32" Name="V4" format="ascii">
8.500000e-01
1.000000e+00
8.500000e-01
1.000000e+00
8.500000e-01
1.000000e+00
8.500000e-01
1.000000e+00
8.500000e-01
1.000000e+00
8.500000e-01
1.000000e+00
8.500000e-01
1.000000e+00
8.500000e-01
1.000000e+00
8.500000e-01
1.000000e+00
8.500000e-01
1.000000e+00
8.500000e-01
1.000000e+00
8.500000e-01
1.000000e+00
8.500000e-01
1.000000e+00
8.500000e-01
1.000000e+00
8.500000e-01
1.000000e+00
8.500000e-01
1.000000e+00
8.500000e-01
1.000000e+00
8.500000e-01
1.000000e+00
8.500000e-01
1.000000e+00
8.500000e-01
1.000000e+00
8.500000e-01
1.000000e+00
8.500000e-01
1.000000e+00
8.500000e-01
1.000000e+00
8.500000e-01
1.000000e+00
8.500000e-01
1.000000e+00
8.500000e-01
1.000000e+00
8.500000e-01
1.000000e+00
8.500000e-01
1.000000e+00
8.500000e-01
1.000000e+00
8.500000e-01
1.000000e+00
8.500000e-01
1.000000e+00
8.500000e-01
1.000000e+00
8.500000e-01
1.000000e+00
8.500000e-01
1.000000e+00
8.500000e-01
1.000000e+00
8.500000e-01
1.000000e+00
8.500000e-01
1.000000e+00
8.500000e-01
1.000000e+00
8.500000e-01
1.000000e+00
8.500000e-01
1.000000e+00
8.500000e-01
1.000000e+00
8.500000e-01
1.000000e+00
8.500000e-01
1.000000e+00
8.500000e-01
1.000000e+00
8.500000e-01
1.000000e+00
8.500000e-01
1.000000e+00
8.500000e-01
1.000000e+00
8.500000e-01
1.000000e+00
8.500000e-01
1.000000e+00
8.500000e-01
1.000000e+00
8.500000e-01
1.000000e+00
8.500000e-01
1.000000e+00
8.500000e-01
1.000000e+00
8.500000e-01
1.000000e+00
8.500000e-01
1.000000e+00
8.500000e-01
1.000000e+00
8.500000e-01
1.000000e+00
8.500000e-01
1.000000e+00
8.500000e-01
1.000000e+00
8.500000e-01
1.000000e+00
</DataArray>
<DataArray type="Float32" Name="V5" format="ascii">
0.000000e+00
0.000000e+00
5.235988e-02
5.235988e-02
5.235988e-02
5.235988e-02
1.047198e-01
1.047198e-01
1.047198e-01
1.047198e-01
1.570796e-01
1.570796e-01
1.570796e-01
1.570796e-01
2.094395e-01
2.094395e-01
2.094395e-01
2.094395e-01
2.617994e-01
2.617994e-01
2.617994e-01
2.617994e-01
3.141593e-01
3.141593e-01
3.141593e-01
3.141593e-01
3.665191e-01
3.665191e-01
3.665191e-01
3.665191e-01
4.188790e-01
4.188790e-01
4.188790e-01
4.188790e-01
4.712389e-01
4.712389e-01
4.712389e-01
4.712389e-01
5.235988e-01
5.235988e-01
5.235988e-01
5.235988e-01
5.759587e-01
5.759587e-01
5.759587e-01
5.759587e-01
6.283185e-01
6.283185e-01
6.283185e-01
6.283185e-01
6.806784e-01
6.806784e-01
6.806784e-01
6.806784e-01
7.330383e-01
7.330383e-01
7.330383e-01
7.330383e-01
7.853982e-01
7.853982e-01
7.853982e-01
7.853982e-01
8.377580e-01
8.377580e-01
8.377580e-01
8.377580e-01
8.901179e-01
8.901179e-01
8.901179e-01
8.901179e-01
9.424778e-01
9.424778e-01
9.424778e-01
9.424778e-01
9.948377e-01
9.948377e-01
9.948377e-01
9.948377e-01
1.047198e+00
1.047198e+00
1.047198e+00
1.047198e+00
1.099557e+00
1.099557e+00
1.099557e+00
1.099557e+00
1.151917e+00
1.151917e+00
1.151917e+00
1.151917e+00
1.204277e+00
1.204277e+00
1.204277e+00
1.204277e+00
1.256637e+00
1.256637e+00
1.256637e+00
1.256637e+00
1.308997e+00
1.308997e+00
1.308997e+00
1.308997e+00
1.361357e+00
1.361357e+00
1.361357e+00
1.361357e+00
1.413717e+00
1.413717e+00
1.413717e+00
1.413717e+00
1.466077e+00
1.466077e+00
1.466077e+00
1.466077e+00
1.518436e+00
1.518436e+00
1.518436e+00
1.518436e+00
1.570796e+00
1.570796e+00
</DataArray>
</PointData>
</Piece></UnstructuredGrid>
</VTKFile>
