<?xml version="1.0"?>
<VTKFile type="UnstructuredGrid" version="0.1" byte_order="LittleEndian" compressor="vtkZLibDataCompressor">
<UnstructuredGrid>
<Piece NumberOfPoints="120" NumberOfCells="30">
<Points>
<DataArray type="Float32" NumberOfComponents="3" format="ascii">
0.000000e+00 4.415456e-01 0.000000e+00
0.000000e+00 5.000000e-01 0.000000e+00
7.769812e-02 4.415856e-01 0.000000e+00
7.766890e-02 5.000000e-01 0.000000e+00
7.769812e-02 4.415856e-01 0.000000e+00
7.766890e-02 5.000000e-01 0.000000e+00
1.553877e-01 4.416507e-01 0.000000e+00
1.553284e-01 5.000000e-01 0.000000e+00
1.553877e-01 4.416507e-01 0.000000e+00
1.553284e-01 5.000000e-01 0.000000e+00
2.330566e-01 4.417587e-01 0.000000e+00
2.329676e-01 5.000000e-01 0.000000e+00
2.330566e-01 4.417587e-01 0.000000e+00
2.329676e-01 5.000000e-01 0.000000e+00
3.106943e-01 4.419097e-01 0.000000e+00
3.105762e-01 5.000000e-01 0.000000e+00
3.106943e-01 4.419097e-01 0.000000e+00
3.105762e-01 5.000000e-01 0.000000e+00
3.882900e-01 4.421029e-01 0.000000e+00
3.881434e-01 5.000000e-01 0.000000e+00
3.882900e-01 4.421029e-01 0.000000e+00
3.881434e-01 5.000000e-01 0.000000e+00
4.658323e-01 4.423379e-01 0.000000e+00
4.656582e-01 5.000000e-01 0.000000e+00
4.658323e-01 4.423379e-01 0.000000e+00
4.656582e-01 5.000000e-01 0.000000e+00
5.433091e-01 4.426138e-01 0.000000e+00
5.431090e-01 5.000000e-01 0.000000e+00
5.433091e-01 4.426138e-01 0.000000e+00
5.431090e-01 5.000000e-01 0.000000e+00
6.207074e-01 4.429297e-01 0.000000e+00
6.204836e-01 5.000000e-01 0.000000e+00
6.207074e-01 4.429297e-01 0.000000e+00
6.204836e-01 5.000000e-01 0.000000e+00
6.980132e-01 4.432845e-01 0.000000e+00
6.977695e-01 5.000000e-01 0.000000e+00
6.980132e-01 4.432845e-01 0.000000e+00
6.977695e-01 5.000000e-01 0.000000e+00
7.752110e-01 4.436771e-01 0.000000e+00
7.749539e-01 5.000000e-01 0.000000e+00
7.752110e-01 4.436771e-01 0.000000e+00
7.749539e-01 5.000000e-01 0.000000e+00
8.522835e-01 4.441061e-01 0.000000e+00
8.520243e-01 5.000000e-01 0.000000e+00
8.522835e-01 4.441061e-01 0.000000e+00
8.520243e-01 5.000000e-01 0.000000e+00
9.292108e-01 4.445701e-01 0.000000e+00
9.289691e-01 5.000000e-01 0.000000e+00
9.292108e-01 4.445701e-01 0.000000e+00
9.289691e-01 5.000000e-01 0.000000e+00
1.005969e+00 4.450670e-01 0.000000e+00
1.005780e+00 5.000000e-01 0.000000e+00
1.005969e+00 4.450670e-01 0.000000e+00
1.005780e+00 5.000000e-01 0.000000e+00
1.082528e+00 4.455945e-01 0.000000e+00
1.082454e+00 5.000000e-01 0.000000e+00
1.082528e+00 4.455945e-01 0.000000e+00
1.082454e+00 5.000000e-01 0.000000e+00
1.158848e+00 4.461491e-01 0.000000e+00
1.159003e+00 5.000000e-01 0.000000e+00
1.158848e+00 4.461491e-01 0.000000e+00
1.159003e+00 5.000000e-01 0.000000e+00
1.234872e+00 4.467251e-01 0.000000e+00
1.235462e+00 5.000000e-01 0.000000e+00
1.234872e+00 4.467251e-01 0.000000e+00
1.235462e+00 5.000000e-01 0.000000e+00
1.310511e+00 4.473142e-01 0.000000e+00
1.311913e+00 5.000000e-01 0.000000e+00
1.310511e+00 4.473142e-01 0.000000e+00
1.311913e+00 5.000000e-01 0.000000e+00
1.385617e+00 4.479074e-01 0.000000e+00
1.388527e+00 5.000000e-01 0.000000e+00
1.385617e+00 4.479074e-01 0.000000e+00
1.388527e+00 5.000000e-01 0.000000e+00
1.459920e+00 4.485105e-01 0.000000e+00
1.465623e+00 5.000000e-01 0.000000e+00
1.459920e+00 4.485105e-01 0.000000e+00
1.465623e+00 5.000000e-01 0.000000e+00
1.532863e+00 4.491738e-01 0.000000e+00
1.543701e+00 5.000000e-01 0.000000e+00
1.532863e+00 4.491738e-01 0.000000e+00
1.543701e+00 5.000000e-01 0.000000e+00
1.604156e+00 4.487389e-01 0.000000e+00
1.620012e+00 4.983797e-01 0.000000e+00
1.604156e+00 4.487389e-01 0.000000e+00
1.620012e+00 4.983797e-01 0.000000e+00
1.672597e+00 4.343865e-01 0.000000e+00
1.693121e+00 4.807187e-01 0.000000e+00
1.672597e+00 4.343865e-01 0.000000e+00
1.693121e+00 4.807187e-01 0.000000e+00
1.735279e+00 4.057736e-01 0.000000e+00
1.761621e+00 4.481044e-01 0.000000e+00
1.735279e+00 4.057736e-01 0.000000e+00
1.761621e+00 4.481044e-01 0.000000e+00
1.790853e+00 3.659580e-01 0.000000e+00
1.822886e+00 4.033070e-01 0.000000e+00
1.790853e+00 3.659580e-01 0.000000e+00
1.822886e+00 4.033070e-01 0.000000e+00
1.838550e+00 3.172185e-01 0.000000e+00
1.875508e+00 3.488685e-01 0.000000e+00
1.838550e+00 3.172185e-01 0.000000e+00
1.875508e+00 3.488685e-01 0.000000e+00
1.877916e+00 2.614994e-01 0.000000e+00
1.918815e+00 2.870334e-01 0.000000e+00
1.877916e+00 2.614994e-01 0.000000e+00
1.918815e+00 2.870334e-01 0.000000e+00
1.908689e+00 2.004930e-01 0.000000e+00
1.952540e+00 2.197092e-01 0.000000e+00
1.908689e+00 2.004930e-01 0.000000e+00
1.952540e+00 2.197092e-01 0.000000e+00
1.930730e+00 1.356933e-01 0.000000e+00
1.976610e+00 1.485153e-01 0.000000e+00
1.930730e+00 1.356933e-01 0.000000e+00
1.976610e+00 1.485153e-01 0.000000e+00
1.943973e+00 6.844631e-02 0.000000e+00
1.991035e+00 7.485688e-02 0.000000e+00
1.943973e+00 6.844631e-02 0.000000e+00
1.991035e+00 7.485688e-02 0.000000e+00
1.948389e+00 9.540460e-12 0.000000e+00
1.995839e+00 9.772800e-12 0.000000e+00
</DataArray>
</Points>
<Cells>
<DataArray type="Int32" Name="connectivity" format="ascii">
0 1 3 2
4 5 7 6
8 9 11 10
12 13 15 14
16 17 19 18
20 21 23 22
24 25 27 26
28 29 31 30
32 33 35 34
36 37 39 38
40 41 43 42
44 45 47 46
48 49 51 50
52 53 55 54
56 57 59 58
60 61 63 62
64 65 67 66
68 69 71 70
72 73 75 74
76 77 79 78
80 81 83 82
84 85 87 86
88 89 91 90
92 93 95 94
96 97 99 98
100 101 103 102
104 105 107 106
108 109 111 110
112 113 115 114
116 117 119 118
</DataArray>
<DataArray type="Int32" Name="offsets" format="ascii">
4
8
12
16
20
24
28
32
36
40
44
48
52
56
60
64
68
72
76
80
84
88
92
96
100
104
108
112
116
120
</DataArray>
<DataArray type="UInt8" Name="types" format="ascii">
9
9
9
9
9
9
9
9
9
9
9
9
9
9
9
9
9
9
9
9
9
9
9
9
9
9
9
9
9
9
</DataArray>
</Cells>
<PointData>
<DataArray type="Float32" Name="V1" format="ascii">
1.408820e+02
3.562046e+00
1.410268e+02
3.706786e+00
1.412596e+02
3.557290e+00
1.416745e+02
3.972276e+00
1.421441e+02
3.667616e+00
1.428460e+02
4.369419e+00
1.435541e+02
3.905946e+00
1.445496e+02
4.901423e+00
1.455042e+02
4.274536e+00
1.468051e+02
5.575419e+00
1.480164e+02
4.778224e+00
1.496384e+02
6.400229e+00
1.511191e+02
5.423905e+00
1.530824e+02
7.387140e+00
1.548482e+02
6.220834e+00
1.571778e+02
8.550422e+00
1.592470e+02
7.181223e+00
1.619739e+02
9.908123e+00
1.643666e+02
8.321155e+00
1.675287e+02
1.148334e+01
1.702660e+02
9.662180e+00
1.739101e+02
1.330626e+01
1.770110e+02
1.123402e+01
1.811947e+02
1.541772e+01
1.846707e+02
1.307940e+01
1.894665e+02
1.787527e+01
1.933095e+02
1.526276e+01
1.988109e+02
2.076423e+01
2.029709e+02
1.788666e+01
2.093020e+02
2.421779e+01
2.136431e+02
2.112325e+01
2.209740e+02
2.845413e+01
2.251914e+02
2.527786e+01
2.337581e+02
3.384459e+01
2.372280e+02
3.092604e+01
2.473378e+02
4.103575e+01
2.488695e+02
3.923066e+01
2.608035e+02
5.116465e+01
2.582530e+02
5.269514e+01
2.718991e+02
6.634130e+01
2.588816e+02
7.917243e+01
2.783493e+02
9.864012e+01
2.678405e+02
1.061111e+02
2.841913e+02
1.224619e+02
2.839698e+02
1.222382e+02
2.995254e+02
1.377939e+02
3.044500e+02
1.344937e+02
3.191487e+02
1.491923e+02
3.260604e+02
1.443277e+02
3.394237e+02
1.576909e+02
3.466031e+02
1.524318e+02
3.581227e+02
1.639514e+02
3.645967e+02
1.590984e+02
3.738791e+02
1.683808e+02
3.790866e+02
1.644308e+02
3.858692e+02
1.712134e+02
3.894860e+02
1.684547e+02
3.936104e+02
1.725791e+02
3.954582e+02
1.711664e+02
3.968415e+02
1.725497e+02
</DataArray>
<DataArray type="Float32" Name="V2" format="ascii">
4.415456e-01
5.000000e-01
4.450468e-01
5.033796e-01
4.450468e-01
5.033796e-01
4.554737e-01
5.134972e-01
4.554737e-01
5.134972e-01
4.727780e-01
5.302883e-01
4.727780e-01
5.302883e-01
4.968498e-01
5.536462e-01
4.968498e-01
5.536462e-01
5.275355e-01
5.834218e-01
5.275355e-01
5.834218e-01
5.646385e-01
6.194246e-01
5.646385e-01
6.194246e-01
6.079202e-01
6.614231e-01
6.079202e-01
6.614231e-01
6.571008e-01
7.091461e-01
6.571008e-01
7.091461e-01
7.118607e-01
7.622840e-01
7.118607e-01
7.622840e-01
7.718411e-01
8.204897e-01
7.718411e-01
8.204897e-01
8.366456e-01
8.833810e-01
8.366456e-01
8.833810e-01
9.058411e-01
9.505429e-01
9.058411e-01
9.505429e-01
9.789588e-01
1.021531e+00
9.789588e-01
1.021531e+00
1.055494e+00
1.095876e+00
1.055494e+00
1.095876e+00
1.134904e+00
1.173093e+00
1.134904e+00
1.173093e+00
1.216606e+00
1.252693e+00
1.216606e+00
1.252693e+00
1.299962e+00
1.334208e+00
1.299962e+00
1.334208e+00
1.384261e+00
1.417234e+00
1.384261e+00
1.417234e+00
1.468668e+00
1.501495e+00
1.468668e+00
1.501495e+00
1.552085e+00
1.586884e+00
1.552085e+00
1.586884e+00
1.633036e+00
1.669701e+00
1.633036e+00
1.669701e+00
1.704674e+00
1.742269e+00
1.704674e+00
1.742269e+00
1.765439e+00
1.805201e+00
1.765439e+00
1.805201e+00
1.816289e+00
1.858296e+00
1.816289e+00
1.858296e+00
1.858005e+00
1.901895e+00
1.858005e+00
1.901895e+00
1.891248e+00
1.936562e+00
1.891248e+00
1.936562e+00
1.916554e+00
1.962871e+00
1.916554e+00
1.962871e+00
1.934337e+00
1.981306e+00
1.934337e+00
1.981306e+00
1.944891e+00
1.992224e+00
1.944891e+00
1.992224e+00
1.948389e+00
1.995839e+00
</DataArray>
<DataArray type="Float32" Name="V3" format="ascii">
0.000000e+00
0.000000e+00
5.448083e-02
5.139448e-02
5.448083e-02
5.139448e-02
1.083714e-01
1.022133e-01
1.083714e-01
1.022133e-01
1.610810e-01
1.518822e-01
1.610810e-01
1.518822e-01
2.120267e-01
1.998335e-01
2.120267e-01
1.998335e-01
2.606347e-01
2.455083e-01
2.606347e-01
2.455083e-01
3.063429e-01
2.883588e-01
3.063429e-01
2.883588e-01
3.486041e-01
3.278519e-01
3.486041e-01
3.278519e-01
3.868887e-01
3.634716e-01
3.868887e-01
3.634716e-01
4.206873e-01
3.947219e-01
4.206873e-01
3.947219e-01
4.495138e-01
4.211298e-01
4.495138e-01
4.211298e-01
4.729075e-01
4.422482e-01
4.729075e-01
4.422482e-01
4.904356e-01
4.576592e-01
4.904356e-01
4.576592e-01
5.016949e-01
4.669776e-01
5.016949e-01
4.669776e-01
5.063142e-01
4.698551e-01
5.063142e-01
4.698551e-01
5.039543e-01
4.659858e-01
5.039543e-01
4.659858e-01
4.943091e-01
4.551131e-01
4.943091e-01
4.551131e-01
4.771028e-01
4.370407e-01
4.771028e-01
4.370407e-01
4.520808e-01
4.116469e-01
4.520808e-01
4.116469e-01
4.189768e-01
3.789003e-01
4.189768e-01
3.789003e-01
3.774357e-01
3.388378e-01
3.774357e-01
3.388378e-01
3.284421e-01
2.914107e-01
3.284421e-01
2.914107e-01
2.834747e-01
2.494958e-01
2.834747e-01
2.494958e-01
2.430462e-01
2.129669e-01
2.430462e-01
2.129669e-01
2.053571e-01
1.797350e-01
2.053571e-01
1.797350e-01
1.694422e-01
1.484360e-01
1.694422e-01
1.484360e-01
1.346557e-01
1.181831e-01
1.346557e-01
1.181831e-01
1.005602e-01
8.844037e-02
1.005602e-01
8.844037e-02
6.686631e-02
5.891029e-02
6.686631e-02
5.891029e-02
3.338717e-02
2.944842e-02
3.338717e-02
2.944842e-02
0.000000e+00
0.000000e+00
</DataArray>
<DataArray type="Float32" Name="V4" format="ascii">
8.500000e-01
1.000000e+00
8.500000e-01
1.000000e+00
8.500000e-01
1.000000e+00
8.500000e-01
1.000000e+00
8.500000e-01
1.000000e+00
8.500000e-01
1.000000e+00
8.500000e-01
1.000000e+00
8.500000e-01
1.000000e+00
8.500000e-01
1.000000e+00
8.500000e-01
1.000000e+00
8.500000e-01
1.000000e+00
8.500000e-01
1.000000e+00
8.500000e-01
1.000000e+00
8.500000e-01
1.000000e+00
8.500000e-01
1.000000e+00
8.500000e-01
1.000000e+00
8.500000e-01
1.000000e+00
8.500000e-01
1.000000e+00
8.500000e-01
1.000000e+00
8.500000e-01
1.000000e+00
8.500000e-01
1.000000e+00
8.500000e-01
1.000000e+00
8.500000e-01
1.000000e+00
8.500000e-01
1.000000e+00
8.500000e-01
1.000000e+00
8.500000e-01
1.000000e+00
8.500000e-01
1.000000e+00
8.500000e-01
1.000000e+00
8.500000e-01
1.000000e+00
8.500000e-01
1.000000e+00
8.500000e-01
1.000000e+00
8.500000e-01
1.000000e+00
8.500000e-01
1.000000e+00
8.500000e-01
1.000000e+00
8.500000e-01
1.000000e+00
8.500000e-01
1.000000e+00
8.500000e-01
1.000000e+00
8.500000e-01
1.000000e+00
8.500000e-01
1.000000e+00
8.500000e-01
1.000000e+00
8.500000e-01
1.000000e+00
8.500000e-01
1.000000e+00
8.500000e-01
1.000000e+00
8.500000e-01
1.000000e+00
8.500000e-01
1.000000e+00
8.500000e-01
1.000000e+00
8.500000e-01
1.000000e+00
8.500000e-01
1.000000e+00
8.500000e-01
1.000000e+00
8.500000e-01
1.000000e+00
8.500000e-01
1.000000e+00
8.500000e-01
1.000000e+00
8.500000e-01
1.000000e+00
8.500000e-01
1.000000e+00
8.500000e-01
1.000000e+00
8.500000e-01
1.000000e+00
8.500000e-01
1.000000e+00
8.500000e-01
1.000000e+00
8.500000e-01
1.000000e+00
8.500000e-01
1.000000e+00
</DataArray>
<DataArray type="Float32" Name="V5" format="ascii">
0.000000e+00
0.000000e+00
5.235988e-02
5.235988e-02
5.235988e-02
5.235988e-02
1.047198e-01
1.047198e-01
1.047198e-01
1.047198e-01
1.570796e-01
1.570796e-01
1.570796e-01
1.570796e-01
2.094395e-01
2.094395e-01
2.094395e-01
2.094395e-01
2.617994e-01
2.617994e-01
2.617994e-01
2.617994e-01
3.141593e-01
3.141593e-01
3.141593e-01
3.141593e-01
3.665191e-01
3.665191e-01
3.665191e-01
3.665191e-01
4.188790e-01
4.188790e-01
4.188790e-01
4.188790e-01
4.712389e-01
4.712389e-01
4.712389e-01
4.712389e-01
5.235988e-01
5.235988e-01
5.235988e-01
5.235988e-01
5.759587e-01
5.759587e-01
5.759587e-01
5.759587e-01
6.283185e-01
6.283185e-01
6.283185e-01
6.283185e-01
6.806784e-01
6.806784e-01
6.806784e-01
6.806784e-01
7.330383e-01
7.330383e-01
7.330383e-01
7.330383e-01
7.853982e-01
7.853982e-01
7.853982e-01
7.853982e-01
8.377580e-01
8.377580e-01
8.377580e-01
8.377580e-01
8.901179e-01
8.901179e-01
8.901179e-01
8.901179e-01
9.424778e-01
9.424778e-01
9.424778e-01
9.424778e-01
9.948377e-01
9.948377e-01
9.948377e-01
9.948377e-01
1.047198e+00
1.047198e+00
1.047198e+00
1.047198e+00
1.099557e+00
1.099557e+00
1.099557e+00
1.099557e+00
1.151917e+00
1.151917e+00
1.151917e+00
1.151917e+00
1.204277e+00
1.204277e+00
1.204277e+00
1.204277e+00
1.256637e+00
1.256637e+00
1.256637e+00
1.256637e+00
1.308997e+00
1.308997e+00
1.308997e+00
1.308997e+00
1.361357e+00
1.361357e+00
1.361357e+00
1.361357e+00
1.413717e+00
1.413717e+00
1.413717e+00
1.413717e+00
1.466077e+00
1.466077e+00
1.466077e+00
1.466077e+00
1.518436e+00
1.518436e+00
1.518436e+00
1.518436e+00
1.570796e+00
1.570796e+00
</DataArray>
</PointData>
</Piece></UnstructuredGrid>
</VTKFile>
