<?xml version="1.0"?>
<VTKFile type="UnstructuredGrid" version="0.1" byte_order="LittleEndian" compressor="vtkZLibDataCompressor">
<UnstructuredGrid>
<Piece NumberOfPoints="120" NumberOfCells="30">
<Points>
<DataArray type="Float32" NumberOfComponents="3" format="ascii">
0.000000e+00 5.563492e-01 0.000000e+00
0.000000e+00 6.400000e-01 0.000000e+00
6.493706e-02 5.563919e-01 0.000000e+00
6.493871e-02 6.400000e-01 0.000000e+00
6.493706e-02 5.563919e-01 0.000000e+00
6.493871e-02 6.400000e-01 0.000000e+00
1.298640e-01 5.564780e-01 0.000000e+00
1.298666e-01 6.400000e-01 0.000000e+00
1.298640e-01 5.564780e-01 0.000000e+00
1.298666e-01 6.400000e-01 0.000000e+00
1.947679e-01 5.566217e-01 0.000000e+00
1.947734e-01 6.400000e-01 0.000000e+00
1.947679e-01 5.566217e-01 0.000000e+00
1.947734e-01 6.400000e-01 0.000000e+00
2.596374e-01 5.568227e-01 0.000000e+00
2.596486e-01 6.400000e-01 0.000000e+00
2.596374e-01 5.568227e-01 0.000000e+00
2.596486e-01 6.400000e-01 0.000000e+00
3.244605e-01 5.570808e-01 0.000000e+00
3.244820e-01 6.400000e-01 0.000000e+00
3.244605e-01 5.570808e-01 0.000000e+00
3.244820e-01 6.400000e-01 0.000000e+00
3.892246e-01 5.573957e-01 0.000000e+00
3.892646e-01 6.400000e-01 0.000000e+00
3.892246e-01 5.573957e-01 0.000000e+00
3.892646e-01 6.400000e-01 0.000000e+00
4.539158e-01 5.577674e-01 0.000000e+00
4.539887e-01 6.400000e-01 0.000000e+00
4.539158e-01 5.577674e-01 0.000000e+00
4.539887e-01 6.400000e-01 0.000000e+00
5.185184e-01 5.581958e-01 0.000000e+00
5.186499e-01 6.400000e-01 0.000000e+00
5.185184e-01 5.581958e-01 0.000000e+00
5.186499e-01 6.400000e-01 0.000000e+00
5.830134e-01 5.586816e-01 0.000000e+00
5.832494e-01 6.400000e-01 0.000000e+00
5.830134e-01 5.586816e-01 0.000000e+00
5.832494e-01 6.400000e-01 0.000000e+00
6.473752e-01 5.592259e-01 0.000000e+00
6.477990e-01 6.400000e-01 0.000000e+00
6.473752e-01 5.592259e-01 0.000000e+00
6.477990e-01 6.400000e-01 0.000000e+00
7.115665e-01 5.598310e-01 0.000000e+00
7.123299e-01 6.400000e-01 0.000000e+00
7.115665e-01 5.598310e-01 0.000000e+00
7.123299e-01 6.400000e-01 0.000000e+00
7.755273e-01 5.605003e-01 0.000000e+00
7.769084e-01 6.400000e-01 0.000000e+00
7.755273e-01 5.605003e-01 0.000000e+00
7.769084e-01 6.400000e-01 0.000000e+00
8.391523e-01 5.612371e-01 0.000000e+00
8.416613e-01 6.400000e-01 0.000000e+00
8.391523e-01 5.612371e-01 0.000000e+00
8.416613e-01 6.400000e-01 0.000000e+00
9.022439e-01 5.620356e-01 0.000000e+00
9.068108e-01 6.400000e-01 0.000000e+00
9.022439e-01 5.620356e-01 0.000000e+00
9.068108e-01 6.400000e-01 0.000000e+00
9.644094e-01 5.628272e-01 0.000000e+00
9.726884e-01 6.400000e-01 0.000000e+00
9.644094e-01 5.628272e-01 0.000000e+00
9.726884e-01 6.400000e-01 0.000000e+00
1.024982e+00 5.633145e-01 0.000000e+00
1.039382e+00 6.400000e-01 0.000000e+00
1.024982e+00 5.633145e-01 0.000000e+00
1.039382e+00 6.400000e-01 0.000000e+00
1.084178e+00 5.612272e-01 0.000000e+00
1.103961e+00 6.367677e-01 0.000000e+00
1.084178e+00 5.612272e-01 0.000000e+00
1.103961e+00 6.367677e-01 0.000000e+00
1.140638e+00 5.491076e-01 0.000000e+00
1.167238e+00 6.212628e-01 0.000000e+00
1.140638e+00 5.491076e-01 0.000000e+00
1.167238e+00 6.212628e-01 0.000000e+00
1.193948e+00 5.288468e-01 0.000000e+00
1.228190e+00 5.965949e-01 0.000000e+00
1.193948e+00 5.288468e-01 0.000000e+00
1.228190e+00 5.965949e-01 0.000000e+00
1.243660e+00 5.011568e-01 0.000000e+00
1.285233e+00 5.636472e-01 0.000000e+00
1.243660e+00 5.011568e-01 0.000000e+00
1.285233e+00 5.636472e-01 0.000000e+00
1.289387e+00 4.670856e-01 0.000000e+00
1.337499e+00 5.237058e-01 0.000000e+00
1.289387e+00 4.670856e-01 0.000000e+00
1.337499e+00 5.237058e-01 0.000000e+00
1.330811e+00 4.275399e-01 0.000000e+00
1.384508e+00 4.779316e-01 0.000000e+00
1.330811e+00 4.275399e-01 0.000000e+00
1.384508e+00 4.779316e-01 0.000000e+00
1.367697e+00 3.833550e-01 0.000000e+00
1.426032e+00 4.273512e-01 0.000000e+00
1.367697e+00 3.833550e-01 0.000000e+00
1.426032e+00 4.273512e-01 0.000000e+00
1.399878e+00 3.352868e-01 0.000000e+00
1.461982e+00 3.728459e-01 0.000000e+00
1.399878e+00 3.352868e-01 0.000000e+00
1.461982e+00 3.728459e-01 0.000000e+00
1.427238e+00 2.840204e-01 0.000000e+00
1.492343e+00 3.151716e-01 0.000000e+00
1.427238e+00 2.840204e-01 0.000000e+00
1.492343e+00 3.151716e-01 0.000000e+00
1.449698e+00 2.301792e-01 0.000000e+00
1.517128e+00 2.549845e-01 0.000000e+00
1.449698e+00 2.301792e-01 0.000000e+00
1.517128e+00 2.549845e-01 0.000000e+00
1.467208e+00 1.743362e-01 0.000000e+00
1.536367e+00 1.928654e-01 0.000000e+00
1.467208e+00 1.743362e-01 0.000000e+00
1.536367e+00 1.928654e-01 0.000000e+00
1.479734e+00 1.170253e-01 0.000000e+00
1.550086e+00 1.293400e-01 0.000000e+00
1.479734e+00 1.170253e-01 0.000000e+00
1.550086e+00 1.293400e-01 0.000000e+00
1.487257e+00 5.875112e-02 0.000000e+00
1.558308e+00 6.489669e-02 0.000000e+00
1.487257e+00 5.875112e-02 0.000000e+00
1.558308e+00 6.489669e-02 0.000000e+00
1.489766e+00 7.294770e-12 0.000000e+00
1.561047e+00 7.643810e-12 0.000000e+00
</DataArray>
</Points>
<Cells>
<DataArray type="Int32" Name="connectivity" format="ascii">
0 1 3 2
4 5 7 6
8 9 11 10
12 13 15 14
16 17 19 18
20 21 23 22
24 25 27 26
28 29 31 30
32 33 35 34
36 37 39 38
40 41 43 42
44 45 47 46
48 49 51 50
52 53 55 54
56 57 59 58
60 61 63 62
64 65 67 66
68 69 71 70
72 73 75 74
76 77 79 78
80 81 83 82
84 85 87 86
88 89 91 90
92 93 95 94
96 97 99 98
100 101 103 102
104 105 107 106
108 109 111 110
112 113 115 114
116 117 119 118
</DataArray>
<DataArray type="Int32" Name="offsets" format="ascii">
4
8
12
16
20
24
28
32
36
40
44
48
52
56
60
64
68
72
76
80
84
88
92
96
100
104
108
112
116
120
</DataArray>
<DataArray type="UInt8" Name="types" format="ascii">
9
9
9
9
9
9
9
9
9
9
9
9
9
9
9
9
9
9
9
9
9
9
9
9
9
9
9
9
9
9
</DataArray>
</Cells>
<PointData>
<DataArray type="Float32" Name="V1" format="ascii">
3.119410e+02
-3.284338e+01
3.123019e+02
-3.248248e+01
3.127423e+02
-3.278052e+01
3.137285e+02
-3.179424e+01
3.146306e+02
-3.240629e+01
3.163052e+02
-3.073163e+01
3.176518e+02
-3.166341e+01
3.200340e+02
-2.928121e+01
3.218311e+02
-3.053631e+01
3.249503e+02
-2.741713e+01
3.272013e+02
-2.899811e+01
3.310981e+02
-2.510131e+01
3.337988e+02
-2.700708e+01
3.385266e+02
-2.227925e+01
3.416555e+02
-2.449902e+01
3.472834e+02
-1.887113e+01
3.507831e+02
-2.137273e+01
3.574004e+02
-1.475545e+01
3.611418e+02
-1.746271e+01
3.688660e+02
-9.738459e+00
3.725783e+02
-1.248635e+01
3.815685e+02
-3.496066e+00
3.847067e+02
-5.940509e+00
3.951847e+02
4.537531e+00
3.966787e+02
3.107920e+00
4.089576e+02
1.538681e+01
4.067505e+02
1.645826e+01
4.212643e+02
3.097200e+01
4.114805e+02
3.769381e+01
4.289221e+02
5.513549e+01
4.038940e+02
7.512649e+01
4.265704e+02
9.780286e+01
3.766000e+02
1.498686e+02
4.091221e+02
1.823907e+02
3.779080e+02
1.999981e+02
3.985886e+02
2.206787e+02
3.901050e+02
2.272538e+02
4.102089e+02
2.473577e+02
4.105403e+02
2.473176e+02
4.299904e+02
2.667678e+02
4.349622e+02
2.628486e+02
4.532666e+02
2.811529e+02
4.602561e+02
2.754583e+02
4.769609e+02
2.921631e+02
4.845514e+02
2.859583e+02
4.993914e+02
3.007984e+02
5.067572e+02
2.948092e+02
5.196044e+02
3.076564e+02
5.262794e+02
3.022727e+02
5.370924e+02
3.130857e+02
5.428214e+02
3.085030e+02
5.516062e+02
3.172878e+02
5.562576e+02
3.135941e+02
5.630416e+02
3.203782e+02
5.665535e+02
3.176056e+02
5.713696e+02
3.224217e+02
5.737167e+02
3.205764e+02
5.765936e+02
3.234533e+02
5.777680e+02
3.225324e+02
5.787247e+02
3.234891e+02
</DataArray>
<DataArray type="Float32" Name="V2" format="ascii">
5.563492e-01
6.400000e-01
5.590280e-01
6.425215e-01
5.590280e-01
6.425215e-01
5.670041e-01
6.500688e-01
5.670041e-01
6.500688e-01
5.802372e-01
6.625898e-01
5.802372e-01
6.625898e-01
5.986365e-01
6.799984e-01
5.986365e-01
6.799984e-01
6.220753e-01
7.021747e-01
6.220753e-01
7.021747e-01
6.503918e-01
7.289655e-01
6.503918e-01
7.289655e-01
6.833895e-01
7.601865e-01
6.833895e-01
7.601865e-01
7.208377e-01
7.956230e-01
7.208377e-01
7.956230e-01
7.624715e-01
8.350339e-01
7.624715e-01
8.350339e-01
8.079914e-01
8.781558e-01
8.079914e-01
8.781558e-01
8.570607e-01
9.247119e-01
8.570607e-01
9.247119e-01
9.092978e-01
9.744262e-01
9.092978e-01
9.744262e-01
9.642588e-01
1.027048e+00
9.642588e-01
1.027048e+00
1.021393e+00
1.082388e+00
1.021393e+00
1.082388e+00
1.079919e+00
1.140343e+00
1.079919e+00
1.140343e+00
1.138641e+00
1.200655e+00
1.138641e+00
1.200655e+00
1.195757e+00
1.258669e+00
1.195757e+00
1.258669e+00
1.245553e+00
1.309484e+00
1.245553e+00
1.309484e+00
1.289360e+00
1.354976e+00
1.289360e+00
1.354976e+00
1.327619e+00
1.394868e+00
1.327619e+00
1.394868e+00
1.360905e+00
1.429478e+00
1.360905e+00
1.429478e+00
1.389652e+00
1.459203e+00
1.389652e+00
1.459203e+00
1.414237e+00
1.484464e+00
1.414237e+00
1.484464e+00
1.434972e+00
1.505644e+00
1.434972e+00
1.505644e+00
1.452116e+00
1.523065e+00
1.452116e+00
1.523065e+00
1.465876e+00
1.536990e+00
1.465876e+00
1.536990e+00
1.476417e+00
1.547622e+00
1.476417e+00
1.547622e+00
1.483861e+00
1.555114e+00
1.483861e+00
1.555114e+00
1.488294e+00
1.559569e+00
1.488294e+00
1.559569e+00
1.489766e+00
1.561047e+00
</DataArray>
<DataArray type="Float32" Name="V3" format="ascii">
0.000000e+00
0.000000e+00
3.572876e-02
3.135470e-02
3.572876e-02
3.135470e-02
7.098477e-02
6.225696e-02
7.098477e-02
6.225696e-02
1.052952e-01
9.225740e-02
1.052952e-01
9.225740e-02
1.381938e-01
1.209112e-01
1.381938e-01
1.209112e-01
1.692217e-01
1.477814e-01
1.692217e-01
1.477814e-01
1.979298e-01
1.724417e-01
1.979298e-01
1.724417e-01
2.238809e-01
1.944795e-01
2.238809e-01
1.944795e-01
2.466515e-01
2.134988e-01
2.466515e-01
2.134988e-01
2.658326e-01
2.291251e-01
2.658326e-01
2.291251e-01
2.810304e-01
2.410104e-01
2.810304e-01
2.410104e-01
2.918641e-01
2.488412e-01
2.918641e-01
2.488412e-01
2.979609e-01
2.523496e-01
2.979609e-01
2.523496e-01
2.989459e-01
2.513286e-01
2.989459e-01
2.513286e-01
2.944227e-01
2.456481e-01
2.944227e-01
2.456481e-01
2.839615e-01
2.352462e-01
2.839615e-01
2.352462e-01
2.672228e-01
2.198698e-01
2.672228e-01
2.198698e-01
2.461400e-01
1.998835e-01
2.461400e-01
1.998835e-01
2.262125e-01
1.834728e-01
2.262125e-01
1.834728e-01
2.067424e-01
1.685738e-01
2.067424e-01
1.685738e-01
1.878154e-01
1.544838e-01
1.878154e-01
1.544838e-01
1.691931e-01
1.405867e-01
1.691931e-01
1.405867e-01
1.507124e-01
1.265178e-01
1.507124e-01
1.265178e-01
1.322461e-01
1.120773e-01
1.322461e-01
1.120773e-01
1.137094e-01
9.717988e-02
1.137094e-01
9.717988e-02
9.505370e-02
8.181433e-02
9.505370e-02
8.181433e-02
7.626003e-02
6.601623e-02
7.626003e-02
6.601623e-02
5.733204e-02
4.984986e-02
5.733204e-02
4.984986e-02
3.829018e-02
3.339661e-02
3.829018e-02
3.339661e-02
1.916643e-02
1.674778e-02
1.916643e-02
1.674778e-02
0.000000e+00
0.000000e+00
</DataArray>
<DataArray type="Float32" Name="V4" format="ascii">
8.500000e-01
1.000000e+00
8.500000e-01
1.000000e+00
8.500000e-01
1.000000e+00
8.500000e-01
1.000000e+00
8.500000e-01
1.000000e+00
8.500000e-01
1.000000e+00
8.500000e-01
1.000000e+00
8.500000e-01
1.000000e+00
8.500000e-01
1.000000e+00
8.500000e-01
1.000000e+00
8.500000e-01
1.000000e+00
8.500000e-01
1.000000e+00
8.500000e-01
1.000000e+00
8.500000e-01
1.000000e+00
8.500000e-01
1.000000e+00
8.500000e-01
1.000000e+00
8.500000e-01
1.000000e+00
8.500000e-01
1.000000e+00
8.500000e-01
1.000000e+00
8.500000e-01
1.000000e+00
8.500000e-01
1.000000e+00
8.500000e-01
1.000000e+00
8.500000e-01
1.000000e+00
8.500000e-01
1.000000e+00
8.500000e-01
1.000000e+00
8.500000e-01
1.000000e+00
8.500000e-01
1.000000e+00
8.500000e-01
1.000000e+00
8.500000e-01
1.000000e+00
8.500000e-01
1.000000e+00
8.500000e-01
1.000000e+00
8.500000e-01
1.000000e+00
8.500000e-01
1.000000e+00
8.500000e-01
1.000000e+00
8.500000e-01
1.000000e+00
8.500000e-01
1.000000e+00
8.500000e-01
1.000000e+00
8.500000e-01
1.000000e+00
8.500000e-01
1.000000e+00
8.500000e-01
1.000000e+00
8.500000e-01
1.000000e+00
8.500000e-01
1.000000e+00
8.500000e-01
1.000000e+00
8.500000e-01
1.000000e+00
8.500000e-01
1.000000e+00
8.500000e-01
1.000000e+00
8.500000e-01
1.000000e+00
8.500000e-01
1.000000e+00
8.500000e-01
1.000000e+00
8.500000e-01
1.000000e+00
8.500000e-01
1.000000e+00
8.500000e-01
1.000000e+00
8.500000e-01
1.000000e+00
8.500000e-01
1.000000e+00
8.500000e-01
1.000000e+00
8.500000e-01
1.000000e+00
8.500000e-01
1.000000e+00
8.500000e-01
1.000000e+00
8.500000e-01
1.000000e+00
8.500000e-01
1.000000e+00
</DataArray>
<DataArray type="Float32" Name="V5" format="ascii">
0.000000e+00
0.000000e+00
5.235988e-02
5.235988e-02
5.235988e-02
5.235988e-02
1.047198e-01
1.047198e-01
1.047198e-01
1.047198e-01
1.570796e-01
1.570796e-01
1.570796e-01
1.570796e-01
2.094395e-01
2.094395e-01
2.094395e-01
2.094395e-01
2.617994e-01
2.617994e-01
2.617994e-01
2.617994e-01
3.141593e-01
3.141593e-01
3.141593e-01
3.141593e-01
3.665191e-01
3.665191e-01
3.665191e-01
3.665191e-01
4.188790e-01
4.188790e-01
4.188790e-01
4.188790e-01
4.712389e-01
4.712389e-01
4.712389e-01
4.712389e-01
5.235988e-01
5.235988e-01
5.235988e-01
5.235988e-01
5.759587e-01
5.759587e-01
5.759587e-01
5.759587e-01
6.283185e-01
6.283185e-01
6.283185e-01
6.283185e-01
6.806784e-01
6.806784e-01
6.806784e-01
6.806784e-01
7.330383e-01
7.330383e-01
7.330383e-01
7.330383e-01
7.853982e-01
7.853982e-01
7.853982e-01
7.853982e-01
8.377580e-01
8.377580e-01
8.377580e-01
8.377580e-01
8.901179e-01
8.901179e-01
8.901179e-01
8.901179e-01
9.424778e-01
9.424778e-01
9.424778e-01
9.424778e-01
9.948377e-01
9.948377e-01
9.948377e-01
9.948377e-01
1.047198e+00
1.047198e+00
1.047198e+00
1.047198e+00
1.099557e+00
1.099557e+00
1.099557e+00
1.099557e+00
1.151917e+00
1.151917e+00
1.151917e+00
1.151917e+00
1.204277e+00
1.204277e+00
1.204277e+00
1.204277e+00
1.256637e+00
1.256637e+00
1.256637e+00
1.256637e+00
1.308997e+00
1.308997e+00
1.308997e+00
1.308997e+00
1.361357e+00
1.361357e+00
1.361357e+00
1.361357e+00
1.413717e+00
1.413717e+00
1.413717e+00
1.413717e+00
1.466077e+00
1.466077e+00
1.466077e+00
1.466077e+00
1.518436e+00
1.518436e+00
1.518436e+00
1.518436e+00
1.570796e+00
1.570796e+00
</DataArray>
</PointData>
</Piece></UnstructuredGrid>
</VTKFile>
