<?xml version="1.0"?>
<VTKFile type="UnstructuredGrid" version="0.1" byte_order="LittleEndian" compressor="vtkZLibDataCompressor">
<UnstructuredGrid>
<Piece NumberOfPoints="120" NumberOfCells="30">
<Points>
<DataArray type="Float32" NumberOfComponents="3" format="ascii">
0.000000e+00 1.004133e+00 0.000000e+00
0.000000e+00 1.110000e+00 0.000000e+00
5.571749e-02 1.004169e+00 0.000000e+00
5.996231e-02 1.110000e+00 0.000000e+00
5.571749e-02 1.004169e+00 0.000000e+00
5.996231e-02 1.110000e+00 0.000000e+00
1.110243e-01 1.003778e+00 0.000000e+00
1.199650e-01 1.110000e+00 0.000000e+00
1.110243e-01 1.003778e+00 0.000000e+00
1.199650e-01 1.110000e+00 0.000000e+00
1.659320e-01 1.002284e+00 0.000000e+00
1.792062e-01 1.109036e+00 0.000000e+00
1.659320e-01 1.002284e+00 0.000000e+00
1.792062e-01 1.109036e+00 0.000000e+00
2.201080e-01 9.968261e-01 0.000000e+00
2.381051e-01 1.102702e+00 0.000000e+00
2.201080e-01 9.968261e-01 0.000000e+00
2.381051e-01 1.102702e+00 0.000000e+00
2.734958e-01 9.878620e-01 0.000000e+00
2.969186e-01 1.092436e+00 0.000000e+00
2.734958e-01 9.878620e-01 0.000000e+00
2.969186e-01 1.092436e+00 0.000000e+00
3.261070e-01 9.754175e-01 0.000000e+00
3.551917e-01 1.078395e+00 0.000000e+00
3.261070e-01 9.754175e-01 0.000000e+00
3.551917e-01 1.078395e+00 0.000000e+00
3.778371e-01 9.597358e-01 0.000000e+00
4.126107e-01 1.060810e+00 0.000000e+00
3.778371e-01 9.597358e-01 0.000000e+00
4.126107e-01 1.060810e+00 0.000000e+00
4.285520e-01 9.409672e-01 0.000000e+00
4.689299e-01 1.039838e+00 0.000000e+00
4.285520e-01 9.409672e-01 0.000000e+00
4.689299e-01 1.039838e+00 0.000000e+00
4.781125e-01 9.192483e-01 0.000000e+00
5.239522e-01 1.015627e+00 0.000000e+00
4.781125e-01 9.192483e-01 0.000000e+00
5.239522e-01 1.015627e+00 0.000000e+00
5.263796e-01 8.947029e-01 0.000000e+00
5.775057e-01 9.883170e-01 0.000000e+00
5.263796e-01 8.947029e-01 0.000000e+00
5.775057e-01 9.883170e-01 0.000000e+00
5.732170e-01 8.674498e-01 0.000000e+00
6.294352e-01 9.580393e-01 0.000000e+00
5.732170e-01 8.674498e-01 0.000000e+00
6.294352e-01 9.580393e-01 0.000000e+00
6.184928e-01 8.376054e-01 0.000000e+00
6.795961e-01 9.249240e-01 0.000000e+00
6.184928e-01 8.376054e-01 0.000000e+00
6.795961e-01 9.249240e-01 0.000000e+00
6.620800e-01 8.052858e-01 0.000000e+00
7.278527e-01 8.890992e-01 0.000000e+00
6.620800e-01 8.052858e-01 0.000000e+00
7.278527e-01 8.890992e-01 0.000000e+00
7.038569e-01 7.706078e-01 0.000000e+00
7.740761e-01 8.506937e-01 0.000000e+00
7.038569e-01 7.706078e-01 0.000000e+00
7.740761e-01 8.506937e-01 0.000000e+00
7.437076e-01 7.336901e-01 0.000000e+00
8.181438e-01 8.098374e-01 0.000000e+00
7.437076e-01 7.336901e-01 0.000000e+00
8.181438e-01 8.098374e-01 0.000000e+00
7.815220e-01 6.946536e-01 0.000000e+00
8.599397e-01 7.666626e-01 0.000000e+00
7.815220e-01 6.946536e-01 0.000000e+00
8.599397e-01 7.666626e-01 0.000000e+00
8.171963e-01 6.536218e-01 0.000000e+00
8.993538e-01 7.213042e-01 0.000000e+00
8.171963e-01 6.536218e-01 0.000000e+00
8.993538e-01 7.213042e-01 0.000000e+00
8.506326e-01 6.107211e-01 0.000000e+00
9.362821e-01 6.739003e-01 0.000000e+00
8.506326e-01 6.107211e-01 0.000000e+00
9.362821e-01 6.739003e-01 0.000000e+00
8.817395e-01 5.660810e-01 0.000000e+00
9.706275e-01 6.245921e-01 0.000000e+00
8.817395e-01 5.660810e-01 0.000000e+00
9.706275e-01 6.245921e-01 0.000000e+00
9.104323e-01 5.198339e-01 0.000000e+00
1.002299e+00 5.735243e-01 0.000000e+00
9.104323e-01 5.198339e-01 0.000000e+00
1.002299e+00 5.735243e-01 0.000000e+00
9.366328e-01 4.721151e-01 0.000000e+00
1.031214e+00 5.208448e-01 0.000000e+00
9.366328e-01 4.721151e-01 0.000000e+00
1.031214e+00 5.208448e-01 0.000000e+00
9.602699e-01 4.230629e-01 0.000000e+00
1.057295e+00 4.667046e-01 0.000000e+00
9.602699e-01 4.230629e-01 0.000000e+00
1.057295e+00 4.667046e-01 0.000000e+00
9.812793e-01 3.728182e-01 0.000000e+00
1.080473e+00 4.112578e-01 0.000000e+00
9.812793e-01 3.728182e-01 0.000000e+00
1.080473e+00 4.112578e-01 0.000000e+00
9.996040e-01 3.215243e-01 0.000000e+00
1.100686e+00 3.546614e-01 0.000000e+00
9.996040e-01 3.215243e-01 0.000000e+00
1.100686e+00 3.546614e-01 0.000000e+00
1.015194e+00 2.693268e-01 0.000000e+00
1.117882e+00 2.970747e-01 0.000000e+00
1.015194e+00 2.693268e-01 0.000000e+00
1.117882e+00 2.970747e-01 0.000000e+00
1.028008e+00 2.163732e-01 0.000000e+00
1.132014e+00 2.386593e-01 0.000000e+00
1.028008e+00 2.163732e-01 0.000000e+00
1.132014e+00 2.386593e-01 0.000000e+00
1.038011e+00 1.628128e-01 0.000000e+00
1.143045e+00 1.795786e-01 0.000000e+00
1.038011e+00 1.628128e-01 0.000000e+00
1.143045e+00 1.795786e-01 0.000000e+00
1.045175e+00 1.087959e-01 0.000000e+00
1.150945e+00 1.199976e-01 0.000000e+00
1.045175e+00 1.087959e-01 0.000000e+00
1.150945e+00 1.199976e-01 0.000000e+00
1.049481e+00 5.447424e-02 0.000000e+00
1.155694e+00 6.008246e-02 0.000000e+00
1.049481e+00 5.447424e-02 0.000000e+00
1.155694e+00 6.008246e-02 0.000000e+00
1.050917e+00 5.145910e-12 0.000000e+00
1.157278e+00 5.666720e-12 0.000000e+00
</DataArray>
</Points>
<Cells>
<DataArray type="Int32" Name="connectivity" format="ascii">
0 1 3 2
4 5 7 6
8 9 11 10
12 13 15 14
16 17 19 18
20 21 23 22
24 25 27 26
28 29 31 30
32 33 35 34
36 37 39 38
40 41 43 42
44 45 47 46
48 49 51 50
52 53 55 54
56 57 59 58
60 61 63 62
64 65 67 66
68 69 71 70
72 73 75 74
76 77 79 78
80 81 83 82
84 85 87 86
88 89 91 90
92 93 95 94
96 97 99 98
100 101 103 102
104 105 107 106
108 109 111 110
112 113 115 114
116 117 119 118
</DataArray>
<DataArray type="Int32" Name="offsets" format="ascii">
4
8
12
16
20
24
28
32
36
40
44
48
52
56
60
64
68
72
76
80
84
88
92
96
100
104
108
112
116
120
</DataArray>
<DataArray type="UInt8" Name="types" format="ascii">
9
9
9
9
9
9
9
9
9
9
9
9
9
9
9
9
9
9
9
9
9
9
9
9
9
9
9
9
9
9
</DataArray>
</Cells>
<PointData>
<DataArray type="Float32" Name="V1" format="ascii">
8.139524e+01
-2.217968e+00
8.231969e+01
-1.293519e+00
7.756468e+01
1.848553e+00
7.980136e+01
4.085240e+00
7.020263e+01
1.275581e+01
7.416532e+01
1.671850e+01
6.687547e+01
2.187604e+01
6.816992e+01
2.317048e+01
6.500594e+01
2.517481e+01
6.560708e+01
2.577594e+01
6.394118e+01
2.700112e+01
6.438663e+01
2.744658e+01
6.352794e+01
2.810438e+01
6.388621e+01
2.846265e+01
6.345445e+01
2.879673e+01
6.374828e+01
2.909056e+01
6.356157e+01
2.923618e+01
6.380506e+01
2.947967e+01
6.375641e+01
2.951830e+01
6.395959e+01
2.972148e+01
6.398725e+01
2.970093e+01
6.415774e+01
2.987142e+01
6.422516e+01
2.982008e+01
6.436890e+01
2.996382e+01
6.445459e+01
2.989837e+01
6.457627e+01
3.002005e+01
6.466771e+01
2.995020e+01
6.477108e+01
3.005357e+01
6.486116e+01
2.998479e+01
6.494921e+01
3.007284e+01
6.503411e+01
3.000808e+01
6.510928e+01
3.008325e+01
6.518711e+01
3.002393e+01
6.525137e+01
3.008819e+01
6.532141e+01
3.003486e+01
6.537638e+01
3.008983e+01
6.543856e+01
3.004252e+01
6.548556e+01
3.008952e+01
6.554018e+01
3.004799e+01
6.558030e+01
3.008811e+01
6.562783e+01
3.005200e+01
6.566197e+01
3.008614e+01
6.570295e+01
3.005502e+01
6.573185e+01
3.008393e+01
6.576681e+01
3.005739e+01
6.579109e+01
3.008166e+01
6.582055e+01
3.005931e+01
6.584069e+01
3.007945e+01
6.586510e+01
3.006094e+01
6.588153e+01
3.007736e+01
6.590128e+01
3.006239e+01
6.591430e+01
3.007541e+01
6.592971e+01
3.006372e+01
6.593960e+01
3.007360e+01
6.595093e+01
3.006501e+01
6.595786e+01
3.007194e+01
6.596531e+01
3.006629e+01
6.596942e+01
3.007039e+01
6.597311e+01
3.006759e+01
6.597447e+01
3.006895e+01
</DataArray>
<DataArray type="Float32" Name="V2" format="ascii">
1.004133e+00
1.110000e+00
1.005709e+00
1.111617e+00
1.005709e+00
1.111617e+00
1.009884e+00
1.116459e+00
1.009884e+00
1.116459e+00
1.015902e+00
1.123416e+00
1.015902e+00
1.123416e+00
1.020806e+00
1.128110e+00
1.020806e+00
1.128110e+00
1.024987e+00
1.132060e+00
1.024987e+00
1.132060e+00
1.028450e+00
1.135375e+00
1.028450e+00
1.135375e+00
1.031395e+00
1.138218e+00
1.031395e+00
1.138218e+00
1.033924e+00
1.140670e+00
1.033924e+00
1.140670e+00
1.036115e+00
1.142800e+00
1.036115e+00
1.142800e+00
1.038025e+00
1.144660e+00
1.038025e+00
1.144660e+00
1.039701e+00
1.146294e+00
1.039701e+00
1.146294e+00
1.041178e+00
1.147736e+00
1.041178e+00
1.147736e+00
1.042485e+00
1.149012e+00
1.042485e+00
1.149012e+00
1.043645e+00
1.150147e+00
1.043645e+00
1.150147e+00
1.044678e+00
1.151157e+00
1.044678e+00
1.151157e+00
1.045598e+00
1.152057e+00
1.045598e+00
1.152057e+00
1.046418e+00
1.152861e+00
1.046418e+00
1.152861e+00
1.047149e+00
1.153577e+00
1.047149e+00
1.153577e+00
1.047799e+00
1.154214e+00
1.047799e+00
1.154214e+00
1.048374e+00
1.154779e+00
1.048374e+00
1.154779e+00
1.048882e+00
1.155277e+00
1.048882e+00
1.155277e+00
1.049325e+00
1.155713e+00
1.049325e+00
1.155713e+00
1.049709e+00
1.156090e+00
1.049709e+00
1.156090e+00
1.050036e+00
1.156411e+00
1.050036e+00
1.156411e+00
1.050309e+00
1.156680e+00
1.050309e+00
1.156680e+00
1.050530e+00
1.156897e+00
1.050530e+00
1.156897e+00
1.050700e+00
1.157065e+00
1.050700e+00
1.157065e+00
1.050821e+00
1.157183e+00
1.050821e+00
1.157183e+00
1.050893e+00
1.157254e+00
1.050893e+00
1.157254e+00
1.050917e+00
1.157278e+00
</DataArray>
<DataArray type="Float32" Name="V3" format="ascii">
0.000000e+00
0.000000e+00
3.086963e-03
1.787222e-03
3.086963e-03
1.787222e-03
5.492724e-03
3.281223e-03
5.492724e-03
3.281223e-03
7.097368e-03
3.508440e-03
7.097368e-03
3.508440e-03
8.046344e-03
3.637392e-03
8.046344e-03
3.637392e-03
8.499144e-03
4.058170e-03
8.499144e-03
4.058170e-03
8.725609e-03
4.564887e-03
8.725609e-03
4.564887e-03
8.802793e-03
5.044829e-03
8.802793e-03
5.044829e-03
8.775837e-03
5.448600e-03
8.775837e-03
5.448600e-03
8.671360e-03
5.759628e-03
8.671360e-03
5.759628e-03
8.506652e-03
5.976170e-03
8.506652e-03
5.976170e-03
8.293235e-03
6.103146e-03
8.293235e-03
6.103146e-03
8.039099e-03
6.148149e-03
8.039099e-03
6.148149e-03
7.750007e-03
6.119522e-03
7.750007e-03
6.119522e-03
7.430297e-03
6.025445e-03
7.430297e-03
6.025445e-03
7.083384e-03
5.873526e-03
7.083384e-03
5.873526e-03
6.712069e-03
5.670658e-03
6.712069e-03
5.670658e-03
6.318741e-03
5.422999e-03
6.318741e-03
5.422999e-03
5.905506e-03
5.136022e-03
5.905506e-03
5.136022e-03
5.474270e-03
4.814587e-03
5.474270e-03
4.814587e-03
5.026798e-03
4.463022e-03
5.026798e-03
4.463022e-03
4.564754e-03
4.085206e-03
4.564754e-03
4.085206e-03
4.089728e-03
3.684637e-03
4.089728e-03
3.684637e-03
3.603254e-03
3.264499e-03
3.603254e-03
3.264499e-03
3.106828e-03
2.827721e-03
3.106828e-03
2.827721e-03
2.601912e-03
2.377019e-03
2.601912e-03
2.377019e-03
2.089950e-03
1.914945e-03
2.089950e-03
1.914945e-03
1.572367e-03
1.443919e-03
1.572367e-03
1.443919e-03
1.050578e-03
9.662613e-04
1.050578e-03
9.662613e-04
5.259885e-04
4.842206e-04
5.259885e-04
4.842206e-04
0.000000e+00
0.000000e+00
</DataArray>
<DataArray type="Float32" Name="V4" format="ascii">
8.500000e-01
1.000000e+00
8.500000e-01
1.000000e+00
8.500000e-01
1.000000e+00
8.500000e-01
1.000000e+00
8.500000e-01
1.000000e+00
8.500000e-01
1.000000e+00
8.500000e-01
1.000000e+00
8.500000e-01
1.000000e+00
8.500000e-01
1.000000e+00
8.500000e-01
1.000000e+00
8.500000e-01
1.000000e+00
8.500000e-01
1.000000e+00
8.500000e-01
1.000000e+00
8.500000e-01
1.000000e+00
8.500000e-01
1.000000e+00
8.500000e-01
1.000000e+00
8.500000e-01
1.000000e+00
8.500000e-01
1.000000e+00
8.500000e-01
1.000000e+00
8.500000e-01
1.000000e+00
8.500000e-01
1.000000e+00
8.500000e-01
1.000000e+00
8.500000e-01
1.000000e+00
8.500000e-01
1.000000e+00
8.500000e-01
1.000000e+00
8.500000e-01
1.000000e+00
8.500000e-01
1.000000e+00
8.500000e-01
1.000000e+00
8.500000e-01
1.000000e+00
8.500000e-01
1.000000e+00
8.500000e-01
1.000000e+00
8.500000e-01
1.000000e+00
8.500000e-01
1.000000e+00
8.500000e-01
1.000000e+00
8.500000e-01
1.000000e+00
8.500000e-01
1.000000e+00
8.500000e-01
1.000000e+00
8.500000e-01
1.000000e+00
8.500000e-01
1.000000e+00
8.500000e-01
1.000000e+00
8.500000e-01
1.000000e+00
8.500000e-01
1.000000e+00
8.500000e-01
1.000000e+00
8.500000e-01
1.000000e+00
8.500000e-01
1.000000e+00
8.500000e-01
1.000000e+00
8.500000e-01
1.000000e+00
8.500000e-01
1.000000e+00
8.500000e-01
1.000000e+00
8.500000e-01
1.000000e+00
8.500000e-01
1.000000e+00
8.500000e-01
1.000000e+00
8.500000e-01
1.000000e+00
8.500000e-01
1.000000e+00
8.500000e-01
1.000000e+00
8.500000e-01
1.000000e+00
8.500000e-01
1.000000e+00
8.500000e-01
1.000000e+00
8.500000e-01
1.000000e+00
8.500000e-01
1.000000e+00
</DataArray>
<DataArray type="Float32" Name="V5" format="ascii">
0.000000e+00
0.000000e+00
5.235988e-02
5.235988e-02
5.235988e-02
5.235988e-02
1.047198e-01
1.047198e-01
1.047198e-01
1.047198e-01
1.570796e-01
1.570796e-01
1.570796e-01
1.570796e-01
2.094395e-01
2.094395e-01
2.094395e-01
2.094395e-01
2.617994e-01
2.617994e-01
2.617994e-01
2.617994e-01
3.141593e-01
3.141593e-01
3.141593e-01
3.141593e-01
3.665191e-01
3.665191e-01
3.665191e-01
3.665191e-01
4.188790e-01
4.188790e-01
4.188790e-01
4.188790e-01
4.712389e-01
4.712389e-01
4.712389e-01
4.712389e-01
5.235988e-01
5.235988e-01
5.235988e-01
5.235988e-01
5.759587e-01
5.759587e-01
5.759587e-01
5.759587e-01
6.283185e-01
6.283185e-01
6.283185e-01
6.283185e-01
6.806784e-01
6.806784e-01
6.806784e-01
6.806784e-01
7.330383e-01
7.330383e-01
7.330383e-01
7.330383e-01
7.853982e-01
7.853982e-01
7.853982e-01
7.853982e-01
8.377580e-01
8.377580e-01
8.377580e-01
8.377580e-01
8.901179e-01
8.901179e-01
8.901179e-01
8.901179e-01
9.424778e-01
9.424778e-01
9.424778e-01
9.424778e-01
9.948377e-01
9.948377e-01
9.948377e-01
9.948377e-01
1.047198e+00
1.047198e+00
1.047198e+00
1.047198e+00
1.099557e+00
1.099557e+00
1.099557e+00
1.099557e+00
1.151917e+00
1.151917e+00
1.151917e+00
1.151917e+00
1.204277e+00
1.204277e+00
1.204277e+00
1.204277e+00
1.256637e+00
1.256637e+00
1.256637e+00
1.256637e+00
1.308997e+00
1.308997e+00
1.308997e+00
1.308997e+00
1.361357e+00
1.361357e+00
1.361357e+00
1.361357e+00
1.413717e+00
1.413717e+00
1.413717e+00
1.413717e+00
1.466077e+00
1.466077e+00
1.466077e+00
1.466077e+00
1.518436e+00
1.518436e+00
1.518436e+00
1.518436e+00
1.570796e+00
1.570796e+00
</DataArray>
</PointData>
</Piece></UnstructuredGrid>
</VTKFile>
