<?xml version="1.0"?>
<VTKFile type="UnstructuredGrid" version="0.1" byte_order="LittleEndian" compressor="vtkZLibDataCompressor">
<UnstructuredGrid>
<Piece NumberOfPoints="120" NumberOfCells="30">
<Points>
<DataArray type="Float32" NumberOfComponents="3" format="ascii">
0.000000e+00 9.130507e-01 0.000000e+00
0.000000e+00 1.020000e+00 0.000000e+00
5.694397e-02 9.131565e-01 0.000000e+00
5.815245e-02 1.020000e+00 0.000000e+00
5.694397e-02 9.131565e-01 0.000000e+00
5.815245e-02 1.020000e+00 0.000000e+00
1.137637e-01 9.133704e-01 0.000000e+00
1.164726e-01 1.020000e+00 0.000000e+00
1.137637e-01 9.133704e-01 0.000000e+00
1.164726e-01 1.020000e+00 0.000000e+00
1.702948e-01 9.136959e-01 0.000000e+00
1.751388e-01 1.020000e+00 0.000000e+00
1.702948e-01 9.136959e-01 0.000000e+00
1.751388e-01 1.020000e+00 0.000000e+00
2.262942e-01 9.140147e-01 0.000000e+00
2.343000e-01 1.020000e+00 0.000000e+00
2.262942e-01 9.140147e-01 0.000000e+00
2.343000e-01 1.020000e+00 0.000000e+00
2.814625e-01 9.139763e-01 0.000000e+00
2.939051e-01 1.020000e+00 0.000000e+00
2.814625e-01 9.139763e-01 0.000000e+00
2.939051e-01 1.020000e+00 0.000000e+00
3.358798e-01 9.126169e-01 0.000000e+00
3.528489e-01 1.018631e+00 0.000000e+00
3.358798e-01 9.126169e-01 0.000000e+00
3.528489e-01 1.018631e+00 0.000000e+00
3.891852e-01 9.067398e-01 0.000000e+00
4.114657e-01 1.011222e+00 0.000000e+00
3.891852e-01 9.067398e-01 0.000000e+00
4.114657e-01 1.011222e+00 0.000000e+00
4.413094e-01 8.964546e-01 0.000000e+00
4.698621e-01 9.988754e-01 0.000000e+00
4.413094e-01 8.964546e-01 0.000000e+00
4.698621e-01 9.988754e-01 0.000000e+00
4.922572e-01 8.818678e-01 0.000000e+00
5.273836e-01 9.818255e-01 0.000000e+00
4.922572e-01 8.818678e-01 0.000000e+00
5.273836e-01 9.818255e-01 0.000000e+00
5.419075e-01 8.633516e-01 0.000000e+00
5.835578e-01 9.604462e-01 0.000000e+00
5.419075e-01 8.633516e-01 0.000000e+00
5.835578e-01 9.604462e-01 0.000000e+00
5.901109e-01 8.411867e-01 0.000000e+00
6.380500e-01 9.350581e-01 0.000000e+00
5.901109e-01 8.411867e-01 0.000000e+00
6.380500e-01 9.350581e-01 0.000000e+00
6.367203e-01 8.156357e-01 0.000000e+00
6.906262e-01 9.059703e-01 0.000000e+00
6.367203e-01 8.156357e-01 0.000000e+00
6.906262e-01 9.059703e-01 0.000000e+00
6.815939e-01 7.869365e-01 0.000000e+00
7.411086e-01 8.734643e-01 0.000000e+00
6.815939e-01 7.869365e-01 0.000000e+00
7.411086e-01 8.734643e-01 0.000000e+00
7.245980e-01 7.553098e-01 0.000000e+00
7.893545e-01 8.377964e-01 0.000000e+00
7.245980e-01 7.553098e-01 0.000000e+00
7.893545e-01 8.377964e-01 0.000000e+00
7.656076e-01 7.209624e-01 0.000000e+00
8.352426e-01 7.992017e-01 0.000000e+00
7.656076e-01 7.209624e-01 0.000000e+00
8.352426e-01 7.992017e-01 0.000000e+00
8.045066e-01 6.840897e-01 0.000000e+00
8.786656e-01 7.578981e-01 0.000000e+00
8.045066e-01 6.840897e-01 0.000000e+00
8.786656e-01 7.578981e-01 0.000000e+00
8.411871e-01 6.448783e-01 0.000000e+00
9.195265e-01 7.140902e-01 0.000000e+00
8.411871e-01 6.448783e-01 0.000000e+00
9.195265e-01 7.140902e-01 0.000000e+00
8.755493e-01 6.035077e-01 0.000000e+00
9.577355e-01 6.679729e-01 0.000000e+00
8.755493e-01 6.035077e-01 0.000000e+00
9.577355e-01 6.679729e-01 0.000000e+00
9.075015e-01 5.601527e-01 0.000000e+00
9.932093e-01 6.197337e-01 0.000000e+00
9.075015e-01 5.601527e-01 0.000000e+00
9.932093e-01 6.197337e-01 0.000000e+00
9.369592e-01 5.149840e-01 0.000000e+00
1.025870e+00 5.695551e-01 0.000000e+00
9.369592e-01 5.149840e-01 0.000000e+00
1.025870e+00 5.695551e-01 0.000000e+00
9.638453e-01 4.681696e-01 0.000000e+00
1.055647e+00 5.176163e-01 0.000000e+00
9.638453e-01 4.681696e-01 0.000000e+00
1.055647e+00 5.176163e-01 0.000000e+00
9.880901e-01 4.198757e-01 0.000000e+00
1.082473e+00 4.640944e-01 0.000000e+00
9.880901e-01 4.198757e-01 0.000000e+00
1.082473e+00 4.640944e-01 0.000000e+00
1.009631e+00 3.702674e-01 0.000000e+00
1.106289e+00 4.091654e-01 0.000000e+00
1.009631e+00 3.702674e-01 0.000000e+00
1.106289e+00 4.091654e-01 0.000000e+00
1.028412e+00 3.195091e-01 0.000000e+00
1.127041e+00 3.530046e-01 0.000000e+00
1.028412e+00 3.195091e-01 0.000000e+00
1.127041e+00 3.530046e-01 0.000000e+00
1.044386e+00 2.677649e-01 0.000000e+00
1.144681e+00 2.957872e-01 0.000000e+00
1.044386e+00 2.677649e-01 0.000000e+00
1.144681e+00 2.957872e-01 0.000000e+00
1.057512e+00 2.151988e-01 0.000000e+00
1.159171e+00 2.376885e-01 0.000000e+00
1.057512e+00 2.151988e-01 0.000000e+00
1.159171e+00 2.376885e-01 0.000000e+00
1.067756e+00 1.619749e-01 0.000000e+00
1.170475e+00 1.788843e-01 0.000000e+00
1.067756e+00 1.619749e-01 0.000000e+00
1.170475e+00 1.788843e-01 0.000000e+00
1.075091e+00 1.082576e-01 0.000000e+00
1.178568e+00 1.195506e-01 0.000000e+00
1.075091e+00 1.082576e-01 0.000000e+00
1.178568e+00 1.195506e-01 0.000000e+00
1.079500e+00 5.421108e-02 0.000000e+00
1.183431e+00 5.986363e-02 0.000000e+00
1.079500e+00 5.421108e-02 0.000000e+00
1.183431e+00 5.986363e-02 0.000000e+00
1.080971e+00 5.293070e-12 0.000000e+00
1.185054e+00 5.802720e-12 0.000000e+00
</DataArray>
</Points>
<Cells>
<DataArray type="Int32" Name="connectivity" format="ascii">
0 1 3 2
4 5 7 6
8 9 11 10
12 13 15 14
16 17 19 18
20 21 23 22
24 25 27 26
28 29 31 30
32 33 35 34
36 37 39 38
40 41 43 42
44 45 47 46
48 49 51 50
52 53 55 54
56 57 59 58
60 61 63 62
64 65 67 66
68 69 71 70
72 73 75 74
76 77 79 78
80 81 83 82
84 85 87 86
88 89 91 90
92 93 95 94
96 97 99 98
100 101 103 102
104 105 107 106
108 109 111 110
112 113 115 114
116 117 119 118
</DataArray>
<DataArray type="Int32" Name="offsets" format="ascii">
4
8
12
16
20
24
28
32
36
40
44
48
52
56
60
64
68
72
76
80
84
88
92
96
100
104
108
112
116
120
</DataArray>
<DataArray type="UInt8" Name="types" format="ascii">
9
9
9
9
9
9
9
9
9
9
9
9
9
9
9
9
9
9
9
9
9
9
9
9
9
9
9
9
9
9
</DataArray>
</Cells>
<PointData>
<DataArray type="Float32" Name="V1" format="ascii">
9.843785e+01
-1.982977e+01
9.869314e+01
-1.957449e+01
9.755738e+01
-1.894275e+01
9.804974e+01
-1.845039e+01
9.554490e+01
-1.685335e+01
9.642364e+01
-1.597461e+01
9.179110e+01
-1.283484e+01
9.330722e+01
-1.131871e+01
8.521143e+01
-5.424316e+00
8.817842e+01
-2.457334e+00
7.529245e+01
8.965010e+00
8.020446e+01
1.387703e+01
7.013904e+01
2.082407e+01
7.239108e+01
2.307612e+01
6.746327e+01
2.627936e+01
6.884041e+01
2.765651e+01
6.631045e+01
2.957589e+01
6.748239e+01
3.074783e+01
6.629714e+01
3.169616e+01
6.733165e+01
3.273068e+01
6.689595e+01
3.308801e+01
6.780484e+01
3.399689e+01
6.780207e+01
3.400560e+01
6.859394e+01
3.479746e+01
6.882893e+01
3.461409e+01
6.951419e+01
3.529935e+01
6.986956e+01
3.501986e+01
7.045996e+01
3.561027e+01
7.086471e+01
3.529247e+01
7.137206e+01
3.579982e+01
7.178429e+01
3.547736e+01
7.221963e+01
3.591270e+01
7.261554e+01
3.560433e+01
7.298873e+01
3.597752e+01
7.335566e+01
3.569291e+01
7.367529e+01
3.601253e+01
7.400738e+01
3.575591e+01
7.428076e+01
3.602929e+01
7.457620e+01
3.580176e+01
7.480952e+01
3.603509e+01
7.506877e+01
3.583601e+01
7.526722e+01
3.603446e+01
7.549195e+01
3.586231e+01
7.565985e+01
3.603021e+01
7.585228e+01
3.588311e+01
7.599320e+01
3.602403e+01
7.615569e+01
3.590004e+01
7.627257e+01
3.601692e+01
7.640737e+01
3.591420e+01
7.650259e+01
3.600942e+01
7.661174e+01
3.592635e+01
7.668723e+01
3.600184e+01
7.677245e+01
3.593704e+01
7.682969e+01
3.599428e+01
7.689238e+01
3.594664e+01
7.693249e+01
3.598675e+01
7.697370e+01
3.595545e+01
7.699747e+01
3.597921e+01
7.701790e+01
3.596370e+01
7.702577e+01
3.597157e+01
</DataArray>
<DataArray type="Float32" Name="V2" format="ascii">
9.130507e-01
1.020000e+00
9.148853e-01
1.021646e+00
9.148853e-01
1.021646e+00
9.202584e-01
1.026587e+00
9.202584e-01
1.026587e+00
9.290868e-01
1.034840e+00
9.290868e-01
1.034840e+00
9.410905e-01
1.046424e+00
9.410905e-01
1.046424e+00
9.556812e-01
1.061313e+00
9.556812e-01
1.061313e+00
9.717428e-01
1.077812e+00
9.717428e-01
1.077812e+00
9.859860e-01
1.091514e+00
9.859860e-01
1.091514e+00
9.984488e-01
1.103628e+00
9.984488e-01
1.103628e+00
1.009230e+00
1.114240e+00
1.009230e+00
1.114240e+00
1.018638e+00
1.123550e+00
1.018638e+00
1.123550e+00
1.026876e+00
1.131713e+00
1.026876e+00
1.131713e+00
1.034118e+00
1.138885e+00
1.034118e+00
1.138885e+00
1.040505e+00
1.145204e+00
1.040505e+00
1.145204e+00
1.046155e+00
1.150785e+00
1.046155e+00
1.150785e+00
1.051164e+00
1.155727e+00
1.051164e+00
1.155727e+00
1.055610e+00
1.160109e+00
1.055610e+00
1.160109e+00
1.059560e+00
1.163998e+00
1.059560e+00
1.163998e+00
1.063067e+00
1.167449e+00
1.063067e+00
1.167449e+00
1.066176e+00
1.170507e+00
1.066176e+00
1.170507e+00
1.068922e+00
1.173207e+00
1.068922e+00
1.173207e+00
1.071337e+00
1.175581e+00
1.071337e+00
1.175581e+00
1.073444e+00
1.177653e+00
1.073444e+00
1.177653e+00
1.075264e+00
1.179442e+00
1.075264e+00
1.179442e+00
1.076812e+00
1.180964e+00
1.076812e+00
1.180964e+00
1.078102e+00
1.182233e+00
1.078102e+00
1.182233e+00
1.079145e+00
1.183258e+00
1.079145e+00
1.183258e+00
1.079948e+00
1.184048e+00
1.079948e+00
1.184048e+00
1.080518e+00
1.184608e+00
1.080518e+00
1.184608e+00
1.080858e+00
1.184943e+00
1.080858e+00
1.184943e+00
1.080971e+00
1.185054e+00
</DataArray>
<DataArray type="Float32" Name="V3" format="ascii">
0.000000e+00
0.000000e+00
9.075011e-03
4.690081e-03
9.075011e-03
4.690081e-03
1.766726e-02
9.215487e-03
1.766726e-02
9.215487e-03
2.526461e-02
1.341939e-02
2.526461e-02
1.341939e-02
3.131479e-02
1.711011e-02
3.131479e-02
1.711011e-02
3.531744e-02
1.989509e-02
3.531744e-02
1.989509e-02
3.742651e-02
2.080493e-02
3.742651e-02
2.080493e-02
3.838921e-02
2.174659e-02
3.838921e-02
2.174659e-02
3.853522e-02
2.296119e-02
3.853522e-02
2.296119e-02
3.824478e-02
2.416275e-02
3.824478e-02
2.416275e-02
3.762988e-02
2.515275e-02
3.762988e-02
2.515275e-02
3.676554e-02
2.584465e-02
3.676554e-02
2.584465e-02
3.569893e-02
2.621232e-02
3.569893e-02
2.621232e-02
3.446278e-02
2.626070e-02
3.446278e-02
2.626070e-02
3.308032e-02
2.600954e-02
3.308032e-02
2.600954e-02
3.156892e-02
2.548476e-02
3.156892e-02
2.548476e-02
2.994224e-02
2.471404e-02
2.994224e-02
2.471404e-02
2.821163e-02
2.372444e-02
2.821163e-02
2.372444e-02
2.638696e-02
2.254137e-02
2.638696e-02
2.254137e-02
2.447713e-02
2.118818e-02
2.447713e-02
2.118818e-02
2.249037e-02
1.968606e-02
2.249037e-02
1.968606e-02
2.043448e-02
1.805426e-02
2.043448e-02
1.805426e-02
1.831694e-02
1.631019e-02
1.831694e-02
1.631019e-02
1.614500e-02
1.446973e-02
1.614500e-02
1.446973e-02
1.392574e-02
1.254748e-02
1.392574e-02
1.254748e-02
1.166610e-02
1.055692e-02
1.166610e-02
1.055692e-02
9.372939e-03
8.510661e-03
9.372939e-03
8.510661e-03
7.053039e-03
6.420634e-03
7.053039e-03
6.420634e-03
4.713126e-03
4.298221e-03
4.713126e-03
4.298221e-03
2.359891e-03
2.154426e-03
2.359891e-03
2.154426e-03
0.000000e+00
0.000000e+00
</DataArray>
<DataArray type="Float32" Name="V4" format="ascii">
8.500000e-01
1.000000e+00
8.500000e-01
1.000000e+00
8.500000e-01
1.000000e+00
8.500000e-01
1.000000e+00
8.500000e-01
1.000000e+00
8.500000e-01
1.000000e+00
8.500000e-01
1.000000e+00
8.500000e-01
1.000000e+00
8.500000e-01
1.000000e+00
8.500000e-01
1.000000e+00
8.500000e-01
1.000000e+00
8.500000e-01
1.000000e+00
8.500000e-01
1.000000e+00
8.500000e-01
1.000000e+00
8.500000e-01
1.000000e+00
8.500000e-01
1.000000e+00
8.500000e-01
1.000000e+00
8.500000e-01
1.000000e+00
8.500000e-01
1.000000e+00
8.500000e-01
1.000000e+00
8.500000e-01
1.000000e+00
8.500000e-01
1.000000e+00
8.500000e-01
1.000000e+00
8.500000e-01
1.000000e+00
8.500000e-01
1.000000e+00
8.500000e-01
1.000000e+00
8.500000e-01
1.000000e+00
8.500000e-01
1.000000e+00
8.500000e-01
1.000000e+00
8.500000e-01
1.000000e+00
8.500000e-01
1.000000e+00
8.500000e-01
1.000000e+00
8.500000e-01
1.000000e+00
8.500000e-01
1.000000e+00
8.500000e-01
1.000000e+00
8.500000e-01
1.000000e+00
8.500000e-01
1.000000e+00
8.500000e-01
1.000000e+00
8.500000e-01
1.000000e+00
8.500000e-01
1.000000e+00
8.500000e-01
1.000000e+00
8.500000e-01
1.000000e+00
8.500000e-01
1.000000e+00
8.500000e-01
1.000000e+00
8.500000e-01
1.000000e+00
8.500000e-01
1.000000e+00
8.500000e-01
1.000000e+00
8.500000e-01
1.000000e+00
8.500000e-01
1.000000e+00
8.500000e-01
1.000000e+00
8.500000e-01
1.000000e+00
8.500000e-01
1.000000e+00
8.500000e-01
1.000000e+00
8.500000e-01
1.000000e+00
8.500000e-01
1.000000e+00
8.500000e-01
1.000000e+00
8.500000e-01
1.000000e+00
8.500000e-01
1.000000e+00
8.500000e-01
1.000000e+00
8.500000e-01
1.000000e+00
</DataArray>
<DataArray type="Float32" Name="V5" format="ascii">
0.000000e+00
0.000000e+00
5.235988e-02
5.235988e-02
5.235988e-02
5.235988e-02
1.047198e-01
1.047198e-01
1.047198e-01
1.047198e-01
1.570796e-01
1.570796e-01
1.570796e-01
1.570796e-01
2.094395e-01
2.094395e-01
2.094395e-01
2.094395e-01
2.617994e-01
2.617994e-01
2.617994e-01
2.617994e-01
3.141593e-01
3.141593e-01
3.141593e-01
3.141593e-01
3.665191e-01
3.665191e-01
3.665191e-01
3.665191e-01
4.188790e-01
4.188790e-01
4.188790e-01
4.188790e-01
4.712389e-01
4.712389e-01
4.712389e-01
4.712389e-01
5.235988e-01
5.235988e-01
5.235988e-01
5.235988e-01
5.759587e-01
5.759587e-01
5.759587e-01
5.759587e-01
6.283185e-01
6.283185e-01
6.283185e-01
6.283185e-01
6.806784e-01
6.806784e-01
6.806784e-01
6.806784e-01
7.330383e-01
7.330383e-01
7.330383e-01
7.330383e-01
7.853982e-01
7.853982e-01
7.853982e-01
7.853982e-01
8.377580e-01
8.377580e-01
8.377580e-01
8.377580e-01
8.901179e-01
8.901179e-01
8.901179e-01
8.901179e-01
9.424778e-01
9.424778e-01
9.424778e-01
9.424778e-01
9.948377e-01
9.948377e-01
9.948377e-01
9.948377e-01
1.047198e+00
1.047198e+00
1.047198e+00
1.047198e+00
1.099557e+00
1.099557e+00
1.099557e+00
1.099557e+00
1.151917e+00
1.151917e+00
1.151917e+00
1.151917e+00
1.204277e+00
1.204277e+00
1.204277e+00
1.204277e+00
1.256637e+00
1.256637e+00
1.256637e+00
1.256637e+00
1.308997e+00
1.308997e+00
1.308997e+00
1.308997e+00
1.361357e+00
1.361357e+00
1.361357e+00
1.361357e+00
1.413717e+00
1.413717e+00
1.413717e+00
1.413717e+00
1.466077e+00
1.466077e+00
1.466077e+00
1.466077e+00
1.518436e+00
1.518436e+00
1.518436e+00
1.518436e+00
1.570796e+00
1.570796e+00
</DataArray>
</PointData>
</Piece></UnstructuredGrid>
</VTKFile>
