<?xml version="1.0"?>
<VTKFile type="UnstructuredGrid" version="0.1" byte_order="LittleEndian" compressor="vtkZLibDataCompressor">
<UnstructuredGrid>
<Piece NumberOfPoints="120" NumberOfCells="30">
<Points>
<DataArray type="Float32" NumberOfComponents="3" format="ascii">
0.000000e+00 6.362744e-01 0.000000e+00
0.000000e+00 7.300000e-01 0.000000e+00
6.134751e-02 6.363179e-01 0.000000e+00
6.135214e-02 7.300000e-01 0.000000e+00
6.134751e-02 6.363179e-01 0.000000e+00
6.135214e-02 7.300000e-01 0.000000e+00
1.226815e-01 6.364065e-01 0.000000e+00
1.226929e-01 7.300000e-01 0.000000e+00
1.226815e-01 6.364065e-01 0.000000e+00
1.226929e-01 7.300000e-01 0.000000e+00
1.839859e-01 6.365548e-01 0.000000e+00
1.840129e-01 7.300000e-01 0.000000e+00
1.839859e-01 6.365548e-01 0.000000e+00
1.840129e-01 7.300000e-01 0.000000e+00
2.452450e-01 6.367628e-01 0.000000e+00
2.453031e-01 7.300000e-01 0.000000e+00
2.452450e-01 6.367628e-01 0.000000e+00
2.453031e-01 7.300000e-01 0.000000e+00
3.064413e-01 6.370314e-01 0.000000e+00
3.065581e-01 7.300000e-01 0.000000e+00
3.064413e-01 6.370314e-01 0.000000e+00
3.065581e-01 7.300000e-01 0.000000e+00
3.675544e-01 6.373619e-01 0.000000e+00
3.677783e-01 7.300000e-01 0.000000e+00
3.675544e-01 6.373619e-01 0.000000e+00
3.677783e-01 7.300000e-01 0.000000e+00
4.285584e-01 6.377572e-01 0.000000e+00
4.289745e-01 7.300000e-01 0.000000e+00
4.285584e-01 6.377572e-01 0.000000e+00
4.289745e-01 7.300000e-01 0.000000e+00
4.894172e-01 6.382218e-01 0.000000e+00
4.901758e-01 7.300000e-01 0.000000e+00
4.894172e-01 6.382218e-01 0.000000e+00
4.901758e-01 7.300000e-01 0.000000e+00
5.500758e-01 6.387624e-01 0.000000e+00
5.514419e-01 7.300000e-01 0.000000e+00
5.500758e-01 6.387624e-01 0.000000e+00
5.514419e-01 7.300000e-01 0.000000e+00
6.104429e-01 6.393860e-01 0.000000e+00
6.128817e-01 7.300000e-01 0.000000e+00
6.104429e-01 6.393860e-01 0.000000e+00
6.128817e-01 7.300000e-01 0.000000e+00
6.703547e-01 6.400893e-01 0.000000e+00
6.746730e-01 7.300000e-01 0.000000e+00
6.703547e-01 6.400893e-01 0.000000e+00
6.746730e-01 7.300000e-01 0.000000e+00
7.295079e-01 6.408101e-01 0.000000e+00
7.370585e-01 7.300000e-01 0.000000e+00
7.295079e-01 6.408101e-01 0.000000e+00
7.370585e-01 7.300000e-01 0.000000e+00
7.873808e-01 6.412370e-01 0.000000e+00
8.001773e-01 7.300000e-01 0.000000e+00
7.873808e-01 6.412370e-01 0.000000e+00
8.001773e-01 7.300000e-01 0.000000e+00
8.438834e-01 6.405648e-01 0.000000e+00
8.626192e-01 7.290210e-01 0.000000e+00
8.438834e-01 6.405648e-01 0.000000e+00
8.626192e-01 7.290210e-01 0.000000e+00
8.986304e-01 6.333139e-01 0.000000e+00
9.237230e-01 7.192161e-01 0.000000e+00
8.986304e-01 6.333139e-01 0.000000e+00
9.237230e-01 7.192161e-01 0.000000e+00
9.508584e-01 6.189937e-01 0.000000e+00
9.836649e-01 7.012422e-01 0.000000e+00
9.508584e-01 6.189937e-01 0.000000e+00
9.836649e-01 7.012422e-01 0.000000e+00
1.000455e+00 5.980454e-01 0.000000e+00
1.041159e+00 6.757992e-01 0.000000e+00
1.000455e+00 5.980454e-01 0.000000e+00
1.041159e+00 6.757992e-01 0.000000e+00
1.047147e+00 5.712701e-01 0.000000e+00
1.095284e+00 6.438314e-01 0.000000e+00
1.047147e+00 5.712701e-01 0.000000e+00
1.095284e+00 6.438314e-01 0.000000e+00
1.090677e+00 5.393601e-01 0.000000e+00
1.145484e+00 6.062415e-01 0.000000e+00
1.090677e+00 5.393601e-01 0.000000e+00
1.145484e+00 6.062415e-01 0.000000e+00
1.130842e+00 5.029657e-01 0.000000e+00
1.191468e+00 5.638679e-01 0.000000e+00
1.130842e+00 5.029657e-01 0.000000e+00
1.191468e+00 5.638679e-01 0.000000e+00
1.167483e+00 4.626768e-01 0.000000e+00
1.233094e+00 5.174435e-01 0.000000e+00
1.167483e+00 4.626768e-01 0.000000e+00
1.233094e+00 5.174435e-01 0.000000e+00
1.200479e+00 4.190299e-01 0.000000e+00
1.270307e+00 4.676008e-01 0.000000e+00
1.200479e+00 4.190299e-01 0.000000e+00
1.270307e+00 4.676008e-01 0.000000e+00
1.229741e+00 3.725119e-01 0.000000e+00
1.303093e+00 4.148848e-01 0.000000e+00
1.229741e+00 3.725119e-01 0.000000e+00
1.303093e+00 4.148848e-01 0.000000e+00
1.255202e+00 3.235666e-01 0.000000e+00
1.331462e+00 3.597711e-01 0.000000e+00
1.255202e+00 3.235666e-01 0.000000e+00
1.331462e+00 3.597711e-01 0.000000e+00
1.276811e+00 2.726017e-01 0.000000e+00
1.355430e+00 3.026807e-01 0.000000e+00
1.276811e+00 2.726017e-01 0.000000e+00
1.355430e+00 3.026807e-01 0.000000e+00
1.294534e+00 2.199949e-01 0.000000e+00
1.375014e+00 2.439939e-01 0.000000e+00
1.294534e+00 2.199949e-01 0.000000e+00
1.375014e+00 2.439939e-01 0.000000e+00
1.308342e+00 1.661007e-01 0.000000e+00
1.390230e+00 1.840608e-01 0.000000e+00
1.308342e+00 1.661007e-01 0.000000e+00
1.390230e+00 1.840608e-01 0.000000e+00
1.318218e+00 1.112557e-01 0.000000e+00
1.401090e+00 1.232100e-01 0.000000e+00
1.318218e+00 1.112557e-01 0.000000e+00
1.401090e+00 1.232100e-01 0.000000e+00
1.324148e+00 5.578360e-02 0.000000e+00
1.407602e+00 6.175494e-02 0.000000e+00
1.324148e+00 5.578360e-02 0.000000e+00
1.407602e+00 6.175494e-02 0.000000e+00
1.326126e+00 6.493490e-12 0.000000e+00
1.409773e+00 6.903080e-12 0.000000e+00
</DataArray>
</Points>
<Cells>
<DataArray type="Int32" Name="connectivity" format="ascii">
0 1 3 2
4 5 7 6
8 9 11 10
12 13 15 14
16 17 19 18
20 21 23 22
24 25 27 26
28 29 31 30
32 33 35 34
36 37 39 38
40 41 43 42
44 45 47 46
48 49 51 50
52 53 55 54
56 57 59 58
60 61 63 62
64 65 67 66
68 69 71 70
72 73 75 74
76 77 79 78
80 81 83 82
84 85 87 86
88 89 91 90
92 93 95 94
96 97 99 98
100 101 103 102
104 105 107 106
108 109 111 110
112 113 115 114
116 117 119 118
</DataArray>
<DataArray type="Int32" Name="offsets" format="ascii">
4
8
12
16
20
24
28
32
36
40
44
48
52
56
60
64
68
72
76
80
84
88
92
96
100
104
108
112
116
120
</DataArray>
<DataArray type="UInt8" Name="types" format="ascii">
9
9
9
9
9
9
9
9
9
9
9
9
9
9
9
9
9
9
9
9
9
9
9
9
9
9
9
9
9
9
</DataArray>
</Cells>
<PointData>
<DataArray type="Float32" Name="V1" format="ascii">
1.955856e+02
-3.653685e+01
1.957983e+02
-3.632419e+01
1.960992e+02
-3.651634e+01
1.966841e+02
-3.593144e+01
1.972924e+02
-3.632848e+01
1.982902e+02
-3.533065e+01
1.991809e+02
-3.592673e+01
2.006053e+02
-3.450229e+01
2.017570e+02
-3.528385e+01
2.036299e+02
-3.341096e+01
2.049977e+02
-3.435050e+01
2.073513e+02
-3.199697e+01
2.088458e+02
-3.304031e+01
2.117260e+02
-3.016009e+01
2.131746e+02
-3.120117e+01
2.166480e+02
-2.772782e+01
2.177232e+02
-2.855986e+01
2.218872e+02
-2.439585e+01
2.219773e+02
-2.461410e+01
2.269768e+02
-1.961453e+01
2.249584e+02
-1.841768e+01
2.310114e+02
-1.236463e+01
2.248646e+02
-8.149659e+00
2.323661e+02
-6.481328e-01
2.184405e+02
9.875188e+00
2.286782e+02
2.011285e+01
2.007346e+02
4.585398e+01
2.166008e+02
6.172017e+01
1.906028e+02
8.351638e+01
2.015501e+02
9.446367e+01
1.899502e+02
1.021373e+02
1.988543e+02
1.110414e+02
1.949519e+02
1.142482e+02
2.035236e+02
1.228199e+02
2.036625e+02
1.228154e+02
2.118469e+02
1.309998e+02
2.140712e+02
1.291854e+02
2.216618e+02
1.367760e+02
2.249007e+02
1.340845e+02
2.317688e+02
1.409526e+02
2.353745e+02
1.379650e+02
2.414663e+02
1.440569e+02
2.450574e+02
1.411087e+02
2.503709e+02
1.464222e+02
2.537274e+02
1.436963e+02
2.582885e+02
1.482574e+02
2.612907e+02
1.458445e+02
2.651378e+02
1.496916e+02
2.677267e+02
1.476300e+02
2.709011e+02
1.508044e+02
2.730531e+02
1.491040e+02
2.755936e+02
1.516445e+02
2.773041e+02
1.503014e+02
2.792442e+02
1.522415e+02
2.805174e+02
1.512464e+02
2.818838e+02
1.526128e+02
2.827272e+02
1.519560e+02
2.835392e+02
1.527680e+02
2.839591e+02
1.524417e+02
2.842285e+02
1.527111e+02
</DataArray>
<DataArray type="Float32" Name="V2" format="ascii">
6.362744e-01
7.300000e-01
6.386565e-01
7.322105e-01
6.386565e-01
7.322105e-01
6.457439e-01
7.388259e-01
6.457439e-01
7.388259e-01
6.574995e-01
7.497984e-01
6.574995e-01
7.497984e-01
6.738373e-01
7.650491e-01
6.738373e-01
7.650491e-01
6.946379e-01
7.844689e-01
6.946379e-01
7.844689e-01
7.197478e-01
8.079210e-01
7.197478e-01
8.079210e-01
7.489792e-01
8.352444e-01
7.489792e-01
8.352444e-01
7.821085e-01
8.662606e-01
7.821085e-01
8.662606e-01
8.188707e-01
9.007842e-01
8.188707e-01
9.007842e-01
8.589460e-01
9.386394e-01
8.589460e-01
9.386394e-01
9.019254e-01
9.796828e-01
9.019254e-01
9.796828e-01
9.472203e-01
1.023815e+00
9.472203e-01
1.023815e+00
9.938496e-01
1.070884e+00
9.938496e-01
1.070884e+00
1.040701e+00
1.118973e+00
1.040701e+00
1.118973e+00
1.083248e+00
1.161733e+00
1.083248e+00
1.161733e+00
1.120813e+00
1.200228e+00
1.120813e+00
1.200228e+00
1.153862e+00
1.234427e+00
1.153862e+00
1.234427e+00
1.182944e+00
1.264538e+00
1.182944e+00
1.264538e+00
1.208475e+00
1.290866e+00
1.208475e+00
1.290866e+00
1.230821e+00
1.313775e+00
1.230821e+00
1.313775e+00
1.250286e+00
1.333610e+00
1.250286e+00
1.333610e+00
1.267127e+00
1.350674e+00
1.267127e+00
1.350674e+00
1.281559e+00
1.365224e+00
1.281559e+00
1.365224e+00
1.293755e+00
1.377471e+00
1.293755e+00
1.377471e+00
1.303859e+00
1.387584e+00
1.303859e+00
1.387584e+00
1.311984e+00
1.395696e+00
1.311984e+00
1.395696e+00
1.318218e+00
1.401907e+00
1.318218e+00
1.401907e+00
1.322626e+00
1.406294e+00
1.322626e+00
1.406294e+00
1.325253e+00
1.408905e+00
1.325253e+00
1.408905e+00
1.326126e+00
1.409773e+00
</DataArray>
<DataArray type="Float32" Name="V3" format="ascii">
0.000000e+00
0.000000e+00
2.796113e-02
2.306282e-02
2.796113e-02
2.306282e-02
5.548689e-02
4.571503e-02
5.548689e-02
4.571503e-02
8.214162e-02
6.755022e-02
8.214162e-02
6.755022e-02
1.074953e-01
8.816709e-02
1.074953e-01
8.816709e-02
1.311237e-01
1.071745e-01
1.311237e-01
1.071745e-01
1.526093e-01
1.241955e-01
1.526093e-01
1.241955e-01
1.715419e-01
1.388736e-01
1.715419e-01
1.388736e-01
1.875166e-01
1.508801e-01
1.875166e-01
1.508801e-01
2.001291e-01
1.599253e-01
2.001291e-01
1.599253e-01
2.089660e-01
1.657712e-01
2.089660e-01
1.657712e-01
2.135892e-01
1.682419e-01
2.135892e-01
1.682419e-01
2.135256e-01
1.672096e-01
2.135256e-01
1.672096e-01
2.083663e-01
1.624506e-01
2.083663e-01
1.624506e-01
1.985061e-01
1.532407e-01
1.985061e-01
1.532407e-01
1.876071e-01
1.446083e-01
1.876071e-01
1.446083e-01
1.762465e-01
1.370758e-01
1.762465e-01
1.370758e-01
1.648383e-01
1.300281e-01
1.648383e-01
1.300281e-01
1.533304e-01
1.229212e-01
1.533304e-01
1.229212e-01
1.416798e-01
1.154384e-01
1.416798e-01
1.154384e-01
1.298399e-01
1.074101e-01
1.298399e-01
1.074101e-01
1.177781e-01
9.876758e-02
1.177781e-01
9.876758e-02
1.054762e-01
8.950583e-02
1.054762e-01
8.950583e-02
9.293008e-02
7.965856e-02
9.293008e-02
7.965856e-02
8.014850e-02
6.928186e-02
8.014850e-02
6.928186e-02
6.715005e-02
5.844404e-02
6.715005e-02
5.844404e-02
5.396116e-02
4.721948e-02
5.396116e-02
4.721948e-02
4.061404e-02
3.568514e-02
4.061404e-02
3.568514e-02
2.714506e-02
2.391874e-02
2.714506e-02
2.391874e-02
1.359341e-02
1.199792e-02
1.359341e-02
1.199792e-02
0.000000e+00
0.000000e+00
</DataArray>
<DataArray type="Float32" Name="V4" format="ascii">
8.500000e-01
1.000000e+00
8.500000e-01
1.000000e+00
8.500000e-01
1.000000e+00
8.500000e-01
1.000000e+00
8.500000e-01
1.000000e+00
8.500000e-01
1.000000e+00
8.500000e-01
1.000000e+00
8.500000e-01
1.000000e+00
8.500000e-01
1.000000e+00
8.500000e-01
1.000000e+00
8.500000e-01
1.000000e+00
8.500000e-01
1.000000e+00
8.500000e-01
1.000000e+00
8.500000e-01
1.000000e+00
8.500000e-01
1.000000e+00
8.500000e-01
1.000000e+00
8.500000e-01
1.000000e+00
8.500000e-01
1.000000e+00
8.500000e-01
1.000000e+00
8.500000e-01
1.000000e+00
8.500000e-01
1.000000e+00
8.500000e-01
1.000000e+00
8.500000e-01
1.000000e+00
8.500000e-01
1.000000e+00
8.500000e-01
1.000000e+00
8.500000e-01
1.000000e+00
8.500000e-01
1.000000e+00
8.500000e-01
1.000000e+00
8.500000e-01
1.000000e+00
8.500000e-01
1.000000e+00
8.500000e-01
1.000000e+00
8.500000e-01
1.000000e+00
8.500000e-01
1.000000e+00
8.500000e-01
1.000000e+00
8.500000e-01
1.000000e+00
8.500000e-01
1.000000e+00
8.500000e-01
1.000000e+00
8.500000e-01
1.000000e+00
8.500000e-01
1.000000e+00
8.500000e-01
1.000000e+00
8.500000e-01
1.000000e+00
8.500000e-01
1.000000e+00
8.500000e-01
1.000000e+00
8.500000e-01
1.000000e+00
8.500000e-01
1.000000e+00
8.500000e-01
1.000000e+00
8.500000e-01
1.000000e+00
8.500000e-01
1.000000e+00
8.500000e-01
1.000000e+00
8.500000e-01
1.000000e+00
8.500000e-01
1.000000e+00
8.500000e-01
1.000000e+00
8.500000e-01
1.000000e+00
8.500000e-01
1.000000e+00
8.500000e-01
1.000000e+00
8.500000e-01
1.000000e+00
8.500000e-01
1.000000e+00
8.500000e-01
1.000000e+00
8.500000e-01
1.000000e+00
8.500000e-01
1.000000e+00
</DataArray>
<DataArray type="Float32" Name="V5" format="ascii">
0.000000e+00
0.000000e+00
5.235988e-02
5.235988e-02
5.235988e-02
5.235988e-02
1.047198e-01
1.047198e-01
1.047198e-01
1.047198e-01
1.570796e-01
1.570796e-01
1.570796e-01
1.570796e-01
2.094395e-01
2.094395e-01
2.094395e-01
2.094395e-01
2.617994e-01
2.617994e-01
2.617994e-01
2.617994e-01
3.141593e-01
3.141593e-01
3.141593e-01
3.141593e-01
3.665191e-01
3.665191e-01
3.665191e-01
3.665191e-01
4.188790e-01
4.188790e-01
4.188790e-01
4.188790e-01
4.712389e-01
4.712389e-01
4.712389e-01
4.712389e-01
5.235988e-01
5.235988e-01
5.235988e-01
5.235988e-01
5.759587e-01
5.759587e-01
5.759587e-01
5.759587e-01
6.283185e-01
6.283185e-01
6.283185e-01
6.283185e-01
6.806784e-01
6.806784e-01
6.806784e-01
6.806784e-01
7.330383e-01
7.330383e-01
7.330383e-01
7.330383e-01
7.853982e-01
7.853982e-01
7.853982e-01
7.853982e-01
8.377580e-01
8.377580e-01
8.377580e-01
8.377580e-01
8.901179e-01
8.901179e-01
8.901179e-01
8.901179e-01
9.424778e-01
9.424778e-01
9.424778e-01
9.424778e-01
9.948377e-01
9.948377e-01
9.948377e-01
9.948377e-01
1.047198e+00
1.047198e+00
1.047198e+00
1.047198e+00
1.099557e+00
1.099557e+00
1.099557e+00
1.099557e+00
1.151917e+00
1.151917e+00
1.151917e+00
1.151917e+00
1.204277e+00
1.204277e+00
1.204277e+00
1.204277e+00
1.256637e+00
1.256637e+00
1.256637e+00
1.256637e+00
1.308997e+00
1.308997e+00
1.308997e+00
1.308997e+00
1.361357e+00
1.361357e+00
1.361357e+00
1.361357e+00
1.413717e+00
1.413717e+00
1.413717e+00
1.413717e+00
1.466077e+00
1.466077e+00
1.466077e+00
1.466077e+00
1.518436e+00
1.518436e+00
1.518436e+00
1.518436e+00
1.570796e+00
1.570796e+00
</DataArray>
</PointData>
</Piece></UnstructuredGrid>
</VTKFile>
