<?xml version="1.0"?>
<VTKFile type="UnstructuredGrid" version="0.1" byte_order="LittleEndian" compressor="vtkZLibDataCompressor">
<UnstructuredGrid>
<Piece NumberOfPoints="120" NumberOfCells="30">
<Points>
<DataArray type="Float32" NumberOfComponents="3" format="ascii">
0.000000e+00 7.475912e-01 0.000000e+00
0.000000e+00 8.500000e-01 0.000000e+00
5.866549e-02 7.476402e-01 0.000000e+00
5.873661e-02 8.500000e-01 0.000000e+00
5.866549e-02 7.476402e-01 0.000000e+00
5.873661e-02 8.500000e-01 0.000000e+00
1.173103e-01 7.477427e-01 0.000000e+00
1.174772e-01 8.500000e-01 0.000000e+00
1.173103e-01 7.477427e-01 0.000000e+00
1.174772e-01 8.500000e-01 0.000000e+00
1.759093e-01 7.479173e-01 0.000000e+00
1.762334e-01 8.500000e-01 0.000000e+00
1.759093e-01 7.479173e-01 0.000000e+00
1.762334e-01 8.500000e-01 0.000000e+00
2.344327e-01 7.481692e-01 0.000000e+00
2.350277e-01 8.500000e-01 0.000000e+00
2.344327e-01 7.481692e-01 0.000000e+00
2.350277e-01 8.500000e-01 0.000000e+00
2.928389e-01 7.485067e-01 0.000000e+00
2.939044e-01 8.500000e-01 0.000000e+00
2.928389e-01 7.485067e-01 0.000000e+00
2.939044e-01 8.500000e-01 0.000000e+00
3.510640e-01 7.489400e-01 0.000000e+00
3.529415e-01 8.500000e-01 0.000000e+00
3.510640e-01 7.489400e-01 0.000000e+00
3.529415e-01 8.500000e-01 0.000000e+00
4.090010e-01 7.494752e-01 0.000000e+00
4.122635e-01 8.500000e-01 0.000000e+00
4.090010e-01 7.494752e-01 0.000000e+00
4.122635e-01 8.500000e-01 0.000000e+00
4.664627e-01 7.500931e-01 0.000000e+00
4.720441e-01 8.500000e-01 0.000000e+00
4.664627e-01 7.500931e-01 0.000000e+00
4.720441e-01 8.500000e-01 0.000000e+00
5.231214e-01 7.506630e-01 0.000000e+00
5.324691e-01 8.500000e-01 0.000000e+00
5.231214e-01 7.506630e-01 0.000000e+00
5.324691e-01 8.500000e-01 0.000000e+00
5.785447e-01 7.507977e-01 0.000000e+00
5.934396e-01 8.500000e-01 0.000000e+00
5.785447e-01 7.507977e-01 0.000000e+00
5.934396e-01 8.500000e-01 0.000000e+00
6.329252e-01 7.489313e-01 0.000000e+00
6.532037e-01 8.475138e-01 0.000000e+00
6.329252e-01 7.489313e-01 0.000000e+00
6.532037e-01 8.475138e-01 0.000000e+00
6.854719e-01 7.407713e-01 0.000000e+00
7.124830e-01 8.367998e-01 0.000000e+00
6.854719e-01 7.407713e-01 0.000000e+00
7.124830e-01 8.367998e-01 0.000000e+00
7.361869e-01 7.269420e-01 0.000000e+00
7.708572e-01 8.196894e-01 0.000000e+00
7.361869e-01 7.269420e-01 0.000000e+00
7.708572e-01 8.196894e-01 0.000000e+00
7.849295e-01 7.077006e-01 0.000000e+00
8.273219e-01 7.965193e-01 0.000000e+00
7.849295e-01 7.077006e-01 0.000000e+00
8.273219e-01 7.965193e-01 0.000000e+00
8.315061e-01 6.836317e-01 0.000000e+00
8.812417e-01 7.679595e-01 0.000000e+00
8.315061e-01 6.836317e-01 0.000000e+00
8.812417e-01 7.679595e-01 0.000000e+00
8.757229e-01 6.552110e-01 0.000000e+00
9.322098e-01 7.346225e-01 0.000000e+00
8.757229e-01 6.552110e-01 0.000000e+00
9.322098e-01 7.346225e-01 0.000000e+00
9.174169e-01 6.228933e-01 0.000000e+00
9.799907e-01 6.970875e-01 0.000000e+00
9.174169e-01 6.228933e-01 0.000000e+00
9.799907e-01 6.970875e-01 0.000000e+00
9.564479e-01 5.870922e-01 0.000000e+00
1.024444e+00 6.558667e-01 0.000000e+00
9.564479e-01 5.870922e-01 0.000000e+00
1.024444e+00 6.558667e-01 0.000000e+00
9.926984e-01 5.481874e-01 0.000000e+00
1.065487e+00 6.114109e-01 0.000000e+00
9.926984e-01 5.481874e-01 0.000000e+00
1.065487e+00 6.114109e-01 0.000000e+00
1.026070e+00 5.065268e-01 0.000000e+00
1.103067e+00 5.641159e-01 0.000000e+00
1.026070e+00 5.065268e-01 0.000000e+00
1.103067e+00 5.641159e-01 0.000000e+00
1.056479e+00 4.624310e-01 0.000000e+00
1.137151e+00 5.143333e-01 0.000000e+00
1.056479e+00 4.624310e-01 0.000000e+00
1.137151e+00 5.143333e-01 0.000000e+00
1.083855e+00 4.161970e-01 0.000000e+00
1.167713e+00 4.623795e-01 0.000000e+00
1.083855e+00 4.161970e-01 0.000000e+00
1.167713e+00 4.623795e-01 0.000000e+00
1.108141e+00 3.681023e-01 0.000000e+00
1.194733e+00 4.085435e-01 0.000000e+00
1.108141e+00 3.681023e-01 0.000000e+00
1.194733e+00 4.085435e-01 0.000000e+00
1.129284e+00 3.184083e-01 0.000000e+00
1.218191e+00 3.530935e-01 0.000000e+00
1.129284e+00 3.184083e-01 0.000000e+00
1.218191e+00 3.530935e-01 0.000000e+00
1.147243e+00 2.673637e-01 0.000000e+00
1.238072e+00 2.962825e-01 0.000000e+00
1.147243e+00 2.673637e-01 0.000000e+00
1.238072e+00 2.962825e-01 0.000000e+00
1.161984e+00 2.152071e-01 0.000000e+00
1.254360e+00 2.383514e-01 0.000000e+00
1.161984e+00 2.152071e-01 0.000000e+00
1.254360e+00 2.383514e-01 0.000000e+00
1.173478e+00 1.621694e-01 0.000000e+00
1.267043e+00 1.795330e-01 0.000000e+00
1.173478e+00 1.621694e-01 0.000000e+00
1.267043e+00 1.795330e-01 0.000000e+00
1.181703e+00 1.084754e-01 0.000000e+00
1.276111e+00 1.200538e-01 0.000000e+00
1.181703e+00 1.084754e-01 0.000000e+00
1.276111e+00 1.200538e-01 0.000000e+00
1.186644e+00 5.434622e-02 0.000000e+00
1.281554e+00 6.013617e-02 0.000000e+00
1.186644e+00 5.434622e-02 0.000000e+00
1.281554e+00 6.013617e-02 0.000000e+00
1.188292e+00 5.818580e-12 0.000000e+00
1.283369e+00 6.284130e-12 0.000000e+00
</DataArray>
</Points>
<Cells>
<DataArray type="Int32" Name="connectivity" format="ascii">
0 1 3 2
4 5 7 6
8 9 11 10
12 13 15 14
16 17 19 18
20 21 23 22
24 25 27 26
28 29 31 30
32 33 35 34
36 37 39 38
40 41 43 42
44 45 47 46
48 49 51 50
52 53 55 54
56 57 59 58
60 61 63 62
64 65 67 66
68 69 71 70
72 73 75 74
76 77 79 78
80 81 83 82
84 85 87 86
88 89 91 90
92 93 95 94
96 97 99 98
100 101 103 102
104 105 107 106
108 109 111 110
112 113 115 114
116 117 119 118
</DataArray>
<DataArray type="Int32" Name="offsets" format="ascii">
4
8
12
16
20
24
28
32
36
40
44
48
52
56
60
64
68
72
76
80
84
88
92
96
100
104
108
112
116
120
</DataArray>
<DataArray type="UInt8" Name="types" format="ascii">
9
9
9
9
9
9
9
9
9
9
9
9
9
9
9
9
9
9
9
9
9
9
9
9
9
9
9
9
9
9
</DataArray>
</Cells>
<PointData>
<DataArray type="Float32" Name="V1" format="ascii">
1.303055e+02
-3.058814e+01
1.304459e+02
-3.044775e+01
1.305769e+02
-3.053330e+01
1.309525e+02
-3.015777e+01
1.311929e+02
-3.031613e+01
1.318382e+02
-2.967090e+01
1.320961e+02
-2.985473e+01
1.330310e+02
-2.891982e+01
1.331518e+02
-2.903418e+01
1.344107e+02
-2.777525e+01
1.341113e+02
-2.764004e+01
1.357507e+02
-2.600070e+01
1.345283e+02
-2.527611e+01
1.366377e+02
-2.316670e+01
1.336207e+02
-2.120490e+01
1.363487e+02
-1.847686e+01
1.300614e+02
-1.405619e+01
1.337762e+02
-1.034132e+01
1.216098e+02
-8.692979e-01
1.275145e+02
5.035389e+00
1.072973e+02
2.467925e+01
1.160156e+02
3.339760e+01
1.022395e+02
4.180352e+01
1.064637e+02
4.602768e+01
1.004953e+02
5.042972e+01
1.040992e+02
5.403361e+01
1.015985e+02
5.611310e+01
1.050224e+02
5.953707e+01
1.045476e+02
5.998222e+01
1.077584e+02
6.319298e+01
1.083890e+02
6.268860e+01
1.113239e+02
6.562345e+01
1.125480e+02
6.461284e+01
1.151769e+02
6.724174e+01
1.166703e+02
6.601054e+01
1.189897e+02
6.832990e+01
1.205571e+02
6.704855e+01
1.225808e+02
6.907229e+01
1.241059e+02
6.783807e+01
1.258563e+02
6.958852e+01
1.272739e+02
6.845279e+01
1.287762e+02
6.995510e+01
1.300528e+02
6.894169e+01
1.313316e+02
7.022055e+01
1.324530e+02
6.933740e+01
1.335310e+02
7.041534e+01
1.344944e+02
6.966174e+01
1.353912e+02
7.055847e+01
1.361999e+02
6.992947e+01
1.369321e+02
7.066165e+01
1.375920e+02
7.015067e+01
1.381733e+02
7.073198e+01
1.386913e+02
7.033234e+01
1.391326e+02
7.077364e+01
1.395150e+02
7.047944e+01
1.398245e+02
7.078894e+01
1.400764e+02
7.059550e+01
1.402598e+02
7.077893e+01
1.403848e+02
7.068303e+01
1.404456e+02
7.074380e+01
</DataArray>
<DataArray type="Float32" Name="V2" format="ascii">
7.475912e-01
8.500000e-01
7.496859e-01
8.519091e-01
7.496859e-01
8.519091e-01
7.559087e-01
8.576233e-01
7.559087e-01
8.576233e-01
7.662274e-01
8.671041e-01
7.662274e-01
8.671041e-01
7.805612e-01
8.802905e-01
7.805612e-01
8.802905e-01
7.987943e-01
8.971050e-01
7.987943e-01
8.971050e-01
8.207690e-01
9.174630e-01
8.207690e-01
9.174630e-01
8.462682e-01
9.412854e-01
8.462682e-01
9.412854e-01
8.749716e-01
9.685113e-01
8.749716e-01
9.685113e-01
9.063378e-01
9.990915e-01
9.063378e-01
9.990915e-01
9.394822e-01
1.032841e+00
9.394822e-01
1.032841e+00
9.728224e-01
1.066545e+00
9.728224e-01
1.066545e+00
1.002207e+00
1.095772e+00
1.002207e+00
1.095772e+00
1.028238e+00
1.122134e+00
1.028238e+00
1.122134e+00
1.051144e+00
1.145516e+00
1.051144e+00
1.145516e+00
1.071364e+00
1.166161e+00
1.071364e+00
1.166161e+00
1.089211e+00
1.184325e+00
1.089211e+00
1.184325e+00
1.104966e+00
1.200287e+00
1.104966e+00
1.200287e+00
1.118867e+00
1.214301e+00
1.118867e+00
1.214301e+00
1.131111e+00
1.226591e+00
1.131111e+00
1.226591e+00
1.141866e+00
1.237342e+00
1.141866e+00
1.237342e+00
1.151269e+00
1.246712e+00
1.151269e+00
1.246712e+00
1.159434e+00
1.254826e+00
1.159434e+00
1.254826e+00
1.166454e+00
1.261788e+00
1.166454e+00
1.261788e+00
1.172406e+00
1.267681e+00
1.172406e+00
1.267681e+00
1.177351e+00
1.272569e+00
1.177351e+00
1.272569e+00
1.181336e+00
1.276506e+00
1.181336e+00
1.276506e+00
1.184399e+00
1.279529e+00
1.184399e+00
1.279529e+00
1.186568e+00
1.281669e+00
1.186568e+00
1.281669e+00
1.187862e+00
1.282945e+00
1.187862e+00
1.282945e+00
1.188292e+00
1.283369e+00
</DataArray>
<DataArray type="Float32" Name="V3" format="ascii">
0.000000e+00
0.000000e+00
1.945663e-02
1.417055e-02
1.945663e-02
1.417055e-02
3.850730e-02
2.798446e-02
3.850730e-02
2.798446e-02
5.674355e-02
4.109440e-02
5.674355e-02
4.109440e-02
7.375668e-02
5.316684e-02
7.375668e-02
5.316684e-02
8.913288e-02
6.389365e-02
8.913288e-02
6.389365e-02
1.024465e-01
7.300290e-02
1.024465e-01
7.300290e-02
1.132475e-01
8.026834e-02
1.132475e-01
8.026834e-02
1.210445e-01
8.550764e-02
1.210445e-01
8.550764e-02
1.253107e-01
8.854151e-02
1.253107e-01
8.854151e-02
1.256356e-01
8.893376e-02
1.256356e-01
8.893376e-02
1.229185e-01
8.623359e-02
1.229185e-01
8.623359e-02
1.191440e-01
8.455229e-02
1.191440e-01
8.455229e-02
1.146453e-01
8.322128e-02
1.146453e-01
8.322128e-02
1.097722e-01
8.184455e-02
1.097722e-01
8.184455e-02
1.045630e-01
8.010263e-02
1.045630e-01
8.010263e-02
9.905638e-02
7.783923e-02
9.905638e-02
7.783923e-02
9.327017e-02
7.498944e-02
9.327017e-02
7.498944e-02
8.721841e-02
7.154580e-02
8.721841e-02
7.154580e-02
8.091370e-02
6.753341e-02
8.091370e-02
6.753341e-02
7.436977e-02
6.299498e-02
7.436977e-02
6.299498e-02
6.760227e-02
5.798156e-02
6.760227e-02
5.798156e-02
6.062885e-02
5.254715e-02
6.062885e-02
5.254715e-02
5.346900e-02
4.674577e-02
5.346900e-02
4.674577e-02
4.614367e-02
4.062985e-02
4.614367e-02
4.062985e-02
3.867494e-02
3.424969e-02
3.867494e-02
3.424969e-02
3.108574e-02
2.765331e-02
3.108574e-02
2.765331e-02
2.339958e-02
2.088662e-02
2.339958e-02
2.088662e-02
1.564041e-02
1.399379e-02
1.564041e-02
1.399379e-02
7.832429e-03
7.017614e-03
7.832429e-03
7.017614e-03
0.000000e+00
0.000000e+00
</DataArray>
<DataArray type="Float32" Name="V4" format="ascii">
8.500000e-01
1.000000e+00
8.500000e-01
1.000000e+00
8.500000e-01
1.000000e+00
8.500000e-01
1.000000e+00
8.500000e-01
1.000000e+00
8.500000e-01
1.000000e+00
8.500000e-01
1.000000e+00
8.500000e-01
1.000000e+00
8.500000e-01
1.000000e+00
8.500000e-01
1.000000e+00
8.500000e-01
1.000000e+00
8.500000e-01
1.000000e+00
8.500000e-01
1.000000e+00
8.500000e-01
1.000000e+00
8.500000e-01
1.000000e+00
8.500000e-01
1.000000e+00
8.500000e-01
1.000000e+00
8.500000e-01
1.000000e+00
8.500000e-01
1.000000e+00
8.500000e-01
1.000000e+00
8.500000e-01
1.000000e+00
8.500000e-01
1.000000e+00
8.500000e-01
1.000000e+00
8.500000e-01
1.000000e+00
8.500000e-01
1.000000e+00
8.500000e-01
1.000000e+00
8.500000e-01
1.000000e+00
8.500000e-01
1.000000e+00
8.500000e-01
1.000000e+00
8.500000e-01
1.000000e+00
8.500000e-01
1.000000e+00
8.500000e-01
1.000000e+00
8.500000e-01
1.000000e+00
8.500000e-01
1.000000e+00
8.500000e-01
1.000000e+00
8.500000e-01
1.000000e+00
8.500000e-01
1.000000e+00
8.500000e-01
1.000000e+00
8.500000e-01
1.000000e+00
8.500000e-01
1.000000e+00
8.500000e-01
1.000000e+00
8.500000e-01
1.000000e+00
8.500000e-01
1.000000e+00
8.500000e-01
1.000000e+00
8.500000e-01
1.000000e+00
8.500000e-01
1.000000e+00
8.500000e-01
1.000000e+00
8.500000e-01
1.000000e+00
8.500000e-01
1.000000e+00
8.500000e-01
1.000000e+00
8.500000e-01
1.000000e+00
8.500000e-01
1.000000e+00
8.500000e-01
1.000000e+00
8.500000e-01
1.000000e+00
8.500000e-01
1.000000e+00
8.500000e-01
1.000000e+00
8.500000e-01
1.000000e+00
8.500000e-01
1.000000e+00
8.500000e-01
1.000000e+00
8.500000e-01
1.000000e+00
</DataArray>
<DataArray type="Float32" Name="V5" format="ascii">
0.000000e+00
0.000000e+00
5.235988e-02
5.235988e-02
5.235988e-02
5.235988e-02
1.047198e-01
1.047198e-01
1.047198e-01
1.047198e-01
1.570796e-01
1.570796e-01
1.570796e-01
1.570796e-01
2.094395e-01
2.094395e-01
2.094395e-01
2.094395e-01
2.617994e-01
2.617994e-01
2.617994e-01
2.617994e-01
3.141593e-01
3.141593e-01
3.141593e-01
3.141593e-01
3.665191e-01
3.665191e-01
3.665191e-01
3.665191e-01
4.188790e-01
4.188790e-01
4.188790e-01
4.188790e-01
4.712389e-01
4.712389e-01
4.712389e-01
4.712389e-01
5.235988e-01
5.235988e-01
5.235988e-01
5.235988e-01
5.759587e-01
5.759587e-01
5.759587e-01
5.759587e-01
6.283185e-01
6.283185e-01
6.283185e-01
6.283185e-01
6.806784e-01
6.806784e-01
6.806784e-01
6.806784e-01
7.330383e-01
7.330383e-01
7.330383e-01
7.330383e-01
7.853982e-01
7.853982e-01
7.853982e-01
7.853982e-01
8.377580e-01
8.377580e-01
8.377580e-01
8.377580e-01
8.901179e-01
8.901179e-01
8.901179e-01
8.901179e-01
9.424778e-01
9.424778e-01
9.424778e-01
9.424778e-01
9.948377e-01
9.948377e-01
9.948377e-01
9.948377e-01
1.047198e+00
1.047198e+00
1.047198e+00
1.047198e+00
1.099557e+00
1.099557e+00
1.099557e+00
1.099557e+00
1.151917e+00
1.151917e+00
1.151917e+00
1.151917e+00
1.204277e+00
1.204277e+00
1.204277e+00
1.204277e+00
1.256637e+00
1.256637e+00
1.256637e+00
1.256637e+00
1.308997e+00
1.308997e+00
1.308997e+00
1.308997e+00
1.361357e+00
1.361357e+00
1.361357e+00
1.361357e+00
1.413717e+00
1.413717e+00
1.413717e+00
1.413717e+00
1.466077e+00
1.466077e+00
1.466077e+00
1.466077e+00
1.518436e+00
1.518436e+00
1.518436e+00
1.518436e+00
1.570796e+00
1.570796e+00
</DataArray>
</PointData>
</Piece></UnstructuredGrid>
</VTKFile>
