<?xml version="1.0"?>
<VTKFile type="UnstructuredGrid" version="0.1" byte_order="LittleEndian" compressor="vtkZLibDataCompressor">
<UnstructuredGrid>
<Piece NumberOfPoints="120" NumberOfCells="30">
<Points>
<DataArray type="Float32" NumberOfComponents="3" format="ascii">
0.000000e+00 8.634735e-01 0.000000e+00
0.000000e+00 9.700000e-01 0.000000e+00
5.733128e-02 8.635527e-01 0.000000e+00
5.789112e-02 9.700000e-01 0.000000e+00
5.733128e-02 8.635527e-01 0.000000e+00
5.789112e-02 9.700000e-01 0.000000e+00
1.146010e-01 8.637246e-01 0.000000e+00
1.158752e-01 9.700000e-01 0.000000e+00
1.146010e-01 8.637246e-01 0.000000e+00
1.158752e-01 9.700000e-01 0.000000e+00
1.717277e-01 8.640155e-01 0.000000e+00
1.740663e-01 9.700000e-01 0.000000e+00
1.717277e-01 8.640155e-01 0.000000e+00
1.740663e-01 9.700000e-01 0.000000e+00
2.285881e-01 8.644187e-01 0.000000e+00
2.326012e-01 9.700000e-01 0.000000e+00
2.285881e-01 8.644187e-01 0.000000e+00
2.326012e-01 9.700000e-01 0.000000e+00
2.849795e-01 8.648815e-01 0.000000e+00
2.916322e-01 9.700000e-01 0.000000e+00
2.849795e-01 8.648815e-01 0.000000e+00
2.916322e-01 9.700000e-01 0.000000e+00
3.405829e-01 8.651529e-01 0.000000e+00
3.512578e-01 9.700000e-01 0.000000e+00
3.405829e-01 8.651529e-01 0.000000e+00
3.512578e-01 9.700000e-01 0.000000e+00
3.952108e-01 8.649266e-01 0.000000e+00
4.109156e-01 9.700000e-01 0.000000e+00
3.952108e-01 8.649266e-01 0.000000e+00
4.109156e-01 9.700000e-01 0.000000e+00
4.489234e-01 8.612234e-01 0.000000e+00
4.696389e-01 9.651489e-01 0.000000e+00
4.489234e-01 8.612234e-01 0.000000e+00
4.696389e-01 9.651489e-01 0.000000e+00
5.011515e-01 8.525487e-01 0.000000e+00
5.282534e-01 9.542786e-01 0.000000e+00
5.011515e-01 8.525487e-01 0.000000e+00
5.282534e-01 9.542786e-01 0.000000e+00
5.520466e-01 8.390568e-01 0.000000e+00
5.861120e-01 9.381254e-01 0.000000e+00
5.520466e-01 8.390568e-01 0.000000e+00
5.861120e-01 9.381254e-01 0.000000e+00
6.014922e-01 8.211466e-01 0.000000e+00
6.425551e-01 9.170803e-01 0.000000e+00
6.014922e-01 8.211466e-01 0.000000e+00
6.425551e-01 9.170803e-01 0.000000e+00
6.493286e-01 7.991805e-01 0.000000e+00
6.971351e-01 8.915542e-01 0.000000e+00
6.493286e-01 7.991805e-01 0.000000e+00
6.971351e-01 8.915542e-01 0.000000e+00
6.953979e-01 7.734903e-01 0.000000e+00
7.495564e-01 8.619486e-01 0.000000e+00
6.953979e-01 7.734903e-01 0.000000e+00
7.495564e-01 8.619486e-01 0.000000e+00
7.395520e-01 7.443797e-01 0.000000e+00
7.996156e-01 8.286334e-01 0.000000e+00
7.395520e-01 7.443797e-01 0.000000e+00
7.996156e-01 8.286334e-01 0.000000e+00
7.816544e-01 7.121282e-01 0.000000e+00
8.471644e-01 7.919425e-01 0.000000e+00
7.816544e-01 7.121282e-01 0.000000e+00
8.471644e-01 7.919425e-01 0.000000e+00
8.215803e-01 6.769947e-01 0.000000e+00
8.920878e-01 7.521768e-01 0.000000e+00
8.215803e-01 6.769947e-01 0.000000e+00
8.920878e-01 7.521768e-01 0.000000e+00
8.592165e-01 6.392206e-01 0.000000e+00
9.342911e-01 7.096089e-01 0.000000e+00
8.592165e-01 6.392206e-01 0.000000e+00
9.342911e-01 7.096089e-01 0.000000e+00
8.944600e-01 5.990325e-01 0.000000e+00
9.736928e-01 6.644890e-01 0.000000e+00
8.944600e-01 5.990325e-01 0.000000e+00
9.736928e-01 6.644890e-01 0.000000e+00
9.272175e-01 5.566451e-01 0.000000e+00
1.010220e+00 6.170492e-01 0.000000e+00
9.272175e-01 5.566451e-01 0.000000e+00
1.010220e+00 6.170492e-01 0.000000e+00
9.574044e-01 5.122631e-01 0.000000e+00
1.043805e+00 5.675084e-01 0.000000e+00
9.574044e-01 5.122631e-01 0.000000e+00
1.043805e+00 5.675084e-01 0.000000e+00
9.849444e-01 4.660836e-01 0.000000e+00
1.074388e+00 5.160751e-01 0.000000e+00
9.849444e-01 4.660836e-01 0.000000e+00
1.074388e+00 5.160751e-01 0.000000e+00
1.009769e+00 4.182977e-01 0.000000e+00
1.101911e+00 4.629506e-01 0.000000e+00
1.009769e+00 4.182977e-01 0.000000e+00
1.101911e+00 4.629506e-01 0.000000e+00
1.031817e+00 3.690918e-01 0.000000e+00
1.126323e+00 4.083306e-01 0.000000e+00
1.031817e+00 3.690918e-01 0.000000e+00
1.126323e+00 4.083306e-01 0.000000e+00
1.051034e+00 3.186487e-01 0.000000e+00
1.147579e+00 3.524072e-01 0.000000e+00
1.051034e+00 3.186487e-01 0.000000e+00
1.147579e+00 3.524072e-01 0.000000e+00
1.067373e+00 2.671488e-01 0.000000e+00
1.165636e+00 2.953697e-01 0.000000e+00
1.067373e+00 2.671488e-01 0.000000e+00
1.165636e+00 2.953697e-01 0.000000e+00
1.080796e+00 2.147704e-01 0.000000e+00
1.180459e+00 2.374055e-01 0.000000e+00
1.080796e+00 2.147704e-01 0.000000e+00
1.180459e+00 2.374055e-01 0.000000e+00
1.091270e+00 1.616905e-01 0.000000e+00
1.192019e+00 1.787011e-01 0.000000e+00
1.091270e+00 1.616905e-01 0.000000e+00
1.192019e+00 1.787011e-01 0.000000e+00
1.098769e+00 1.080853e-01 0.000000e+00
1.200293e+00 1.194421e-01 0.000000e+00
1.098769e+00 1.080853e-01 0.000000e+00
1.200293e+00 1.194421e-01 0.000000e+00
1.103276e+00 5.413007e-02 0.000000e+00
1.205264e+00 5.981339e-02 0.000000e+00
1.103276e+00 5.413007e-02 0.000000e+00
1.205264e+00 5.981339e-02 0.000000e+00
1.104780e+00 5.409650e-12 0.000000e+00
1.206922e+00 5.909800e-12 0.000000e+00
</DataArray>
</Points>
<Cells>
<DataArray type="Int32" Name="connectivity" format="ascii">
0 1 3 2
4 5 7 6
8 9 11 10
12 13 15 14
16 17 19 18
20 21 23 22
24 25 27 26
28 29 31 30
32 33 35 34
36 37 39 38
40 41 43 42
44 45 47 46
48 49 51 50
52 53 55 54
56 57 59 58
60 61 63 62
64 65 67 66
68 69 71 70
72 73 75 74
76 77 79 78
80 81 83 82
84 85 87 86
88 89 91 90
92 93 95 94
96 97 99 98
100 101 103 102
104 105 107 106
108 109 111 110
112 113 115 114
116 117 119 118
</DataArray>
<DataArray type="Int32" Name="offsets" format="ascii">
4
8
12
16
20
24
28
32
36
40
44
48
52
56
60
64
68
72
76
80
84
88
92
96
100
104
108
112
116
120
</DataArray>
<DataArray type="UInt8" Name="types" format="ascii">
9
9
9
9
9
9
9
9
9
9
9
9
9
9
9
9
9
9
9
9
9
9
9
9
9
9
9
9
9
9
</DataArray>
</Cells>
<PointData>
<DataArray type="Float32" Name="V1" format="ascii">
1.047050e+02
-2.373934e+01
1.048784e+02
-2.356591e+01
1.044420e+02
-2.334368e+01
1.048230e+02
-2.296272e+01
1.038192e+02
-2.236884e+01
1.044847e+02
-2.170340e+01
1.024917e+02
-2.046099e+01
1.035145e+02
-1.943818e+01
9.981007e+01
-1.698530e+01
1.013408e+02
-1.545459e+01
9.472613e+01
-1.081742e+01
9.730872e+01
-8.234831e+00
8.547799e+01
1.197381e+00
9.038946e+01
6.108854e+00
7.644672e+01
1.869220e+01
8.072143e+01
2.296691e+01
7.296017e+01
2.734328e+01
7.495263e+01
2.933575e+01
7.122232e+01
3.212408e+01
7.291438e+01
3.381614e+01
7.117256e+01
3.522410e+01
7.271109e+01
3.676263e+01
7.209464e+01
3.728113e+01
7.348352e+01
3.867001e+01
7.351417e+01
3.865674e+01
7.474912e+01
3.989170e+01
7.513806e+01
3.958266e+01
7.622243e+01
4.066704e+01
7.679276e+01
4.021068e+01
7.773649e+01
4.115441e+01
7.838032e+01
4.064098e+01
7.919679e+01
4.145744e+01
7.984976e+01
4.093976e+01
8.055331e+01
4.164331e+01
8.117849e+01
4.115078e+01
8.178297e+01
4.175525e+01
8.236061e+01
4.130292e+01
8.287860e+01
4.182090e+01
8.339950e+01
4.141523e+01
8.384204e+01
4.185777e+01
8.430330e+01
4.150027e+01
8.467990e+01
4.187687e+01
8.508218e+01
4.156635e+01
8.540087e+01
4.188504e+01
8.574674e+01
4.161900e+01
8.601423e+01
4.188649e+01
8.630707e+01
4.166189e+01
8.652892e+01
4.188374e+01
8.677229e+01
4.169752e+01
8.695302e+01
4.187826e+01
8.715029e+01
4.172760e+01
8.729355e+01
4.187086e+01
8.744769e+01
4.175333e+01
8.755631e+01
4.186195e+01
8.766975e+01
4.177555e+01
8.774586e+01
4.185166e+01
8.782045e+01
4.179489e+01
8.786554e+01
4.183999e+01
8.790252e+01
4.181185e+01
8.791746e+01
4.182679e+01
</DataArray>
<DataArray type="Float32" Name="V2" format="ascii">
8.634735e-01
9.700000e-01
8.653698e-01
9.717004e-01
8.653698e-01
9.717004e-01
8.709721e-01
9.767985e-01
8.709721e-01
9.767985e-01
8.802421e-01
9.852877e-01
8.802421e-01
9.852877e-01
8.930552e-01
9.971637e-01
8.930552e-01
9.971637e-01
9.091695e-01
1.012428e+00
9.091695e-01
1.012428e+00
9.280552e-01
1.031069e+00
9.280552e-01
1.031069e+00
9.491094e-01
1.052832e+00
9.491094e-01
1.052832e+00
9.693603e-01
1.072727e+00
9.693603e-01
1.072727e+00
9.871444e-01
1.090091e+00
9.871444e-01
1.090091e+00
1.002668e+00
1.105496e+00
1.002668e+00
1.105496e+00
1.016268e+00
1.119089e+00
1.016268e+00
1.119089e+00
1.028216e+00
1.131048e+00
1.028216e+00
1.131048e+00
1.038743e+00
1.141571e+00
1.038743e+00
1.141571e+00
1.048039e+00
1.150842e+00
1.048039e+00
1.150842e+00
1.056264e+00
1.159024e+00
1.056264e+00
1.159024e+00
1.063551e+00
1.166255e+00
1.063551e+00
1.166255e+00
1.070011e+00
1.172652e+00
1.070011e+00
1.172652e+00
1.075736e+00
1.178311e+00
1.075736e+00
1.178311e+00
1.080801e+00
1.183311e+00
1.080801e+00
1.183311e+00
1.085268e+00
1.187716e+00
1.085268e+00
1.187716e+00
1.089189e+00
1.191580e+00
1.089189e+00
1.191580e+00
1.092607e+00
1.194945e+00
1.092607e+00
1.194945e+00
1.095554e+00
1.197846e+00
1.095554e+00
1.197846e+00
1.098060e+00
1.200312e+00
1.098060e+00
1.200312e+00
1.100147e+00
1.202365e+00
1.100147e+00
1.202365e+00
1.101832e+00
1.204022e+00
1.101832e+00
1.204022e+00
1.103129e+00
1.205298e+00
1.103129e+00
1.205298e+00
1.104048e+00
1.206203e+00
1.104048e+00
1.206203e+00
1.104597e+00
1.206743e+00
1.104597e+00
1.206743e+00
1.104780e+00
1.206922e+00
</DataArray>
<DataArray type="Float32" Name="V3" format="ascii">
0.000000e+00
0.000000e+00
1.205785e-02
7.045907e-03
1.205785e-02
7.045907e-03
2.368939e-02
1.384783e-02
2.368939e-02
1.384783e-02
3.445165e-02
2.018178e-02
3.445165e-02
2.018178e-02
4.387010e-02
2.584399e-02
4.387010e-02
2.584399e-02
5.142130e-02
3.064061e-02
5.142130e-02
3.064061e-02
5.656668e-02
3.431954e-02
5.656668e-02
3.431954e-02
5.899910e-02
3.600586e-02
5.899910e-02
3.600586e-02
5.982082e-02
3.647510e-02
5.982082e-02
3.647510e-02
5.948026e-02
3.744382e-02
5.948026e-02
3.744382e-02
5.855801e-02
3.852520e-02
5.855801e-02
3.852520e-02
5.722531e-02
3.941436e-02
5.722531e-02
3.941436e-02
5.557133e-02
3.995174e-02
5.557133e-02
3.995174e-02
5.365243e-02
4.007289e-02
5.365243e-02
4.007289e-02
5.150701e-02
3.976622e-02
5.150701e-02
3.976622e-02
4.916244e-02
3.904775e-02
4.916244e-02
3.904775e-02
4.663942e-02
3.794694e-02
4.663942e-02
3.794694e-02
4.395474e-02
3.649874e-02
4.395474e-02
3.649874e-02
4.112289e-02
3.473939e-02
4.112289e-02
3.473939e-02
3.815698e-02
3.270406e-02
3.815698e-02
3.270406e-02
3.506937e-02
3.042588e-02
3.506937e-02
3.042588e-02
3.187187e-02
2.793553e-02
3.187187e-02
2.793553e-02
2.857603e-02
2.526119e-02
2.857603e-02
2.526119e-02
2.519314e-02
2.242878e-02
2.519314e-02
2.242878e-02
2.173435e-02
1.946217e-02
2.173435e-02
1.946217e-02
1.821068e-02
1.638352e-02
1.821068e-02
1.638352e-02
1.463309e-02
1.321354e-02
1.463309e-02
1.321354e-02
1.101243e-02
9.971821e-03
1.101243e-02
9.971821e-03
7.359519e-03
6.677035e-03
7.359519e-03
6.677035e-03
3.685127e-03
3.347222e-03
3.685127e-03
3.347222e-03
0.000000e+00
0.000000e+00
</DataArray>
<DataArray type="Float32" Name="V4" format="ascii">
8.500000e-01
1.000000e+00
8.500000e-01
1.000000e+00
8.500000e-01
1.000000e+00
8.500000e-01
1.000000e+00
8.500000e-01
1.000000e+00
8.500000e-01
1.000000e+00
8.500000e-01
1.000000e+00
8.500000e-01
1.000000e+00
8.500000e-01
1.000000e+00
8.500000e-01
1.000000e+00
8.500000e-01
1.000000e+00
8.500000e-01
1.000000e+00
8.500000e-01
1.000000e+00
8.500000e-01
1.000000e+00
8.500000e-01
1.000000e+00
8.500000e-01
1.000000e+00
8.500000e-01
1.000000e+00
8.500000e-01
1.000000e+00
8.500000e-01
1.000000e+00
8.500000e-01
1.000000e+00
8.500000e-01
1.000000e+00
8.500000e-01
1.000000e+00
8.500000e-01
1.000000e+00
8.500000e-01
1.000000e+00
8.500000e-01
1.000000e+00
8.500000e-01
1.000000e+00
8.500000e-01
1.000000e+00
8.500000e-01
1.000000e+00
8.500000e-01
1.000000e+00
8.500000e-01
1.000000e+00
8.500000e-01
1.000000e+00
8.500000e-01
1.000000e+00
8.500000e-01
1.000000e+00
8.500000e-01
1.000000e+00
8.500000e-01
1.000000e+00
8.500000e-01
1.000000e+00
8.500000e-01
1.000000e+00
8.500000e-01
1.000000e+00
8.500000e-01
1.000000e+00
8.500000e-01
1.000000e+00
8.500000e-01
1.000000e+00
8.500000e-01
1.000000e+00
8.500000e-01
1.000000e+00
8.500000e-01
1.000000e+00
8.500000e-01
1.000000e+00
8.500000e-01
1.000000e+00
8.500000e-01
1.000000e+00
8.500000e-01
1.000000e+00
8.500000e-01
1.000000e+00
8.500000e-01
1.000000e+00
8.500000e-01
1.000000e+00
8.500000e-01
1.000000e+00
8.500000e-01
1.000000e+00
8.500000e-01
1.000000e+00
8.500000e-01
1.000000e+00
8.500000e-01
1.000000e+00
8.500000e-01
1.000000e+00
8.500000e-01
1.000000e+00
8.500000e-01
1.000000e+00
8.500000e-01
1.000000e+00
</DataArray>
<DataArray type="Float32" Name="V5" format="ascii">
0.000000e+00
0.000000e+00
5.235988e-02
5.235988e-02
5.235988e-02
5.235988e-02
1.047198e-01
1.047198e-01
1.047198e-01
1.047198e-01
1.570796e-01
1.570796e-01
1.570796e-01
1.570796e-01
2.094395e-01
2.094395e-01
2.094395e-01
2.094395e-01
2.617994e-01
2.617994e-01
2.617994e-01
2.617994e-01
3.141593e-01
3.141593e-01
3.141593e-01
3.141593e-01
3.665191e-01
3.665191e-01
3.665191e-01
3.665191e-01
4.188790e-01
4.188790e-01
4.188790e-01
4.188790e-01
4.712389e-01
4.712389e-01
4.712389e-01
4.712389e-01
5.235988e-01
5.235988e-01
5.235988e-01
5.235988e-01
5.759587e-01
5.759587e-01
5.759587e-01
5.759587e-01
6.283185e-01
6.283185e-01
6.283185e-01
6.283185e-01
6.806784e-01
6.806784e-01
6.806784e-01
6.806784e-01
7.330383e-01
7.330383e-01
7.330383e-01
7.330383e-01
7.853982e-01
7.853982e-01
7.853982e-01
7.853982e-01
8.377580e-01
8.377580e-01
8.377580e-01
8.377580e-01
8.901179e-01
8.901179e-01
8.901179e-01
8.901179e-01
9.424778e-01
9.424778e-01
9.424778e-01
9.424778e-01
9.948377e-01
9.948377e-01
9.948377e-01
9.948377e-01
1.047198e+00
1.047198e+00
1.047198e+00
1.047198e+00
1.099557e+00
1.099557e+00
1.099557e+00
1.099557e+00
1.151917e+00
1.151917e+00
1.151917e+00
1.151917e+00
1.204277e+00
1.204277e+00
1.204277e+00
1.204277e+00
1.256637e+00
1.256637e+00
1.256637e+00
1.256637e+00
1.308997e+00
1.308997e+00
1.308997e+00
1.308997e+00
1.361357e+00
1.361357e+00
1.361357e+00
1.361357e+00
1.413717e+00
1.413717e+00
1.413717e+00
1.413717e+00
1.466077e+00
1.466077e+00
1.466077e+00
1.466077e+00
1.518436e+00
1.518436e+00
1.518436e+00
1.518436e+00
1.570796e+00
1.570796e+00
</DataArray>
</PointData>
</Piece></UnstructuredGrid>
</VTKFile>
