<?xml version="1.0"?>
<VTKFile type="UnstructuredGrid" version="0.1" byte_order="LittleEndian" compressor="vtkZLibDataCompressor">
<UnstructuredGrid>
<Piece NumberOfPoints="120" NumberOfCells="30">
<Points>
<DataArray type="Float32" NumberOfComponents="3" format="ascii">
0.000000e+00 9.331049e-01 0.000000e+00
0.000000e+00 1.040000e+00 0.000000e+00
5.677632e-02 9.332213e-01 0.000000e+00
5.839129e-02 1.040000e+00 0.000000e+00
5.677632e-02 9.332213e-01 0.000000e+00
5.839129e-02 1.040000e+00 0.000000e+00
1.133851e-01 9.334378e-01 0.000000e+00
1.169799e-01 1.040000e+00 0.000000e+00
1.133851e-01 9.334378e-01 0.000000e+00
1.169799e-01 1.040000e+00 0.000000e+00
1.696104e-01 9.337253e-01 0.000000e+00
1.759552e-01 1.040000e+00 0.000000e+00
1.696104e-01 9.337253e-01 0.000000e+00
1.759552e-01 1.040000e+00 0.000000e+00
2.251520e-01 9.338026e-01 0.000000e+00
2.354164e-01 1.040000e+00 0.000000e+00
2.251520e-01 9.338026e-01 0.000000e+00
2.354164e-01 1.040000e+00 0.000000e+00
2.799037e-01 9.333864e-01 0.000000e+00
2.947424e-01 1.040000e+00 0.000000e+00
2.799037e-01 9.333864e-01 0.000000e+00
2.947424e-01 1.040000e+00 0.000000e+00
3.338573e-01 9.293458e-01 0.000000e+00
3.533095e-01 1.034928e+00 0.000000e+00
3.338573e-01 9.293458e-01 0.000000e+00
3.533095e-01 1.034928e+00 0.000000e+00
3.866127e-01 9.210018e-01 0.000000e+00
4.118949e-01 1.024804e+00 0.000000e+00
3.866127e-01 9.210018e-01 0.000000e+00
4.118949e-01 1.024804e+00 0.000000e+00
4.383074e-01 9.083727e-01 0.000000e+00
4.699105e-01 1.010034e+00 0.000000e+00
4.383074e-01 9.083727e-01 0.000000e+00
4.699105e-01 1.010034e+00 0.000000e+00
4.888478e-01 8.918354e-01 0.000000e+00
5.268462e-01 9.909747e-01 0.000000e+00
4.888478e-01 8.918354e-01 0.000000e+00
5.268462e-01 9.909747e-01 0.000000e+00
5.380924e-01 8.716599e-01 0.000000e+00
5.823371e-01 9.679172e-01 0.000000e+00
5.380924e-01 8.716599e-01 0.000000e+00
5.823371e-01 9.679172e-01 0.000000e+00
5.858952e-01 8.480951e-01 0.000000e+00
6.361283e-01 9.411479e-01 0.000000e+00
5.858952e-01 8.480951e-01 0.000000e+00
6.361283e-01 9.411479e-01 0.000000e+00
6.321130e-01 8.213641e-01 0.000000e+00
6.880259e-01 9.109273e-01 0.000000e+00
6.321130e-01 8.213641e-01 0.000000e+00
6.880259e-01 9.109273e-01 0.000000e+00
6.766082e-01 7.916726e-01 0.000000e+00
7.378732e-01 8.774941e-01 0.000000e+00
6.766082e-01 7.916726e-01 0.000000e+00
7.378732e-01 8.774941e-01 0.000000e+00
7.192509e-01 7.592132e-01 0.000000e+00
7.855368e-01 8.410680e-01 0.000000e+00
7.192509e-01 7.592132e-01 0.000000e+00
7.855368e-01 8.410680e-01 0.000000e+00
7.599190e-01 7.241682e-01 0.000000e+00
8.308979e-01 8.018531e-01 0.000000e+00
7.599190e-01 7.241682e-01 0.000000e+00
8.308979e-01 8.018531e-01 0.000000e+00
7.984982e-01 6.867123e-01 0.000000e+00
8.738484e-01 7.600420e-01 0.000000e+00
7.984982e-01 6.867123e-01 0.000000e+00
8.738484e-01 7.600420e-01 0.000000e+00
8.348820e-01 6.470144e-01 0.000000e+00
9.142883e-01 7.158190e-01 0.000000e+00
8.348820e-01 6.470144e-01 0.000000e+00
9.142883e-01 7.158190e-01 0.000000e+00
8.689712e-01 6.052391e-01 0.000000e+00
9.521244e-01 6.693620e-01 0.000000e+00
8.689712e-01 6.052391e-01 0.000000e+00
9.521244e-01 6.693620e-01 0.000000e+00
9.006741e-01 5.615483e-01 0.000000e+00
9.872694e-01 6.208450e-01 0.000000e+00
9.006741e-01 5.615483e-01 0.000000e+00
9.872694e-01 6.208450e-01 0.000000e+00
9.299063e-01 5.161017e-01 0.000000e+00
1.019642e+00 5.704397e-01 0.000000e+00
9.299063e-01 5.161017e-01 0.000000e+00
1.019642e+00 5.704397e-01 0.000000e+00
9.565904e-01 4.690583e-01 0.000000e+00
1.049168e+00 5.183161e-01 0.000000e+00
9.565904e-01 4.690583e-01 0.000000e+00
1.049168e+00 5.183161e-01 0.000000e+00
9.806561e-01 4.205763e-01 0.000000e+00
1.075777e+00 4.646439e-01 0.000000e+00
9.806561e-01 4.205763e-01 0.000000e+00
1.075777e+00 4.646439e-01 0.000000e+00
1.002040e+00 3.708140e-01 0.000000e+00
1.099407e+00 4.095927e-01 0.000000e+00
1.002040e+00 3.708140e-01 0.000000e+00
1.099407e+00 4.095927e-01 0.000000e+00
1.020687e+00 3.199299e-01 0.000000e+00
1.120002e+00 3.533327e-01 0.000000e+00
1.020687e+00 3.199299e-01 0.000000e+00
1.120002e+00 3.533327e-01 0.000000e+00
1.036548e+00 2.680828e-01 0.000000e+00
1.137512e+00 2.960346e-01 0.000000e+00
1.036548e+00 2.680828e-01 0.000000e+00
1.137512e+00 2.960346e-01 0.000000e+00
1.049582e+00 2.154322e-01 0.000000e+00
1.151897e+00 2.378700e-01 0.000000e+00
1.049582e+00 2.154322e-01 0.000000e+00
1.151897e+00 2.378700e-01 0.000000e+00
1.059755e+00 1.621380e-01 0.000000e+00
1.163122e+00 1.790110e-01 0.000000e+00
1.059755e+00 1.621380e-01 0.000000e+00
1.163122e+00 1.790110e-01 0.000000e+00
1.067040e+00 1.083607e-01 0.000000e+00
1.171159e+00 1.196307e-01 0.000000e+00
1.067040e+00 1.083607e-01 0.000000e+00
1.171159e+00 1.196307e-01 0.000000e+00
1.071419e+00 5.426097e-02 0.000000e+00
1.175989e+00 5.990236e-02 0.000000e+00
1.071419e+00 5.426097e-02 0.000000e+00
1.175989e+00 5.990236e-02 0.000000e+00
1.072880e+00 5.253450e-12 0.000000e+00
1.177600e+00 5.766220e-12 0.000000e+00
</DataArray>
</Points>
<Cells>
<DataArray type="Int32" Name="connectivity" format="ascii">
0 1 3 2
4 5 7 6
8 9 11 10
12 13 15 14
16 17 19 18
20 21 23 22
24 25 27 26
28 29 31 30
32 33 35 34
36 37 39 38
40 41 43 42
44 45 47 46
48 49 51 50
52 53 55 54
56 57 59 58
60 61 63 62
64 65 67 66
68 69 71 70
72 73 75 74
76 77 79 78
80 81 83 82
84 85 87 86
88 89 91 90
92 93 95 94
96 97 99 98
100 101 103 102
104 105 107 106
108 109 111 110
112 113 115 114
116 117 119 118
</DataArray>
<DataArray type="Int32" Name="offsets" format="ascii">
4
8
12
16
20
24
28
32
36
40
44
48
52
56
60
64
68
72
76
80
84
88
92
96
100
104
108
112
116
120
</DataArray>
<DataArray type="UInt8" Name="types" format="ascii">
9
9
9
9
9
9
9
9
9
9
9
9
9
9
9
9
9
9
9
9
9
9
9
9
9
9
9
9
9
9
</DataArray>
</Cells>
<PointData>
<DataArray type="Float32" Name="V1" format="ascii">
9.594122e+01
-1.764761e+01
9.625205e+01
-1.733678e+01
9.467521e+01
-1.642692e+01
9.525323e+01
-1.584890e+01
9.181050e+01
-1.357215e+01
9.288003e+01
-1.250262e+01
8.661989e+01
-8.159106e+00
8.876684e+01
-6.012161e+00
7.770423e+01
2.733414e+00
8.212445e+01
7.153639e+00
7.039657e+01
1.732289e+01
7.341647e+01
2.034278e+01
6.725945e+01
2.385623e+01
6.861008e+01
2.520685e+01
6.548903e+01
2.748283e+01
6.656097e+01
2.855477e+01
6.500756e+01
2.976940e+01
6.593525e+01
3.069709e+01
6.524061e+01
3.125403e+01
6.604840e+01
3.206182e+01
6.585169e+01
3.222412e+01
6.655160e+01
3.292404e+01
6.663494e+01
3.286197e+01
6.723822e+01
3.346525e+01
6.747150e+01
3.328351e+01
6.798970e+01
3.380170e+01
6.829428e+01
3.356380e+01
6.873853e+01
3.400806e+01
6.906761e+01
3.375156e+01
6.944816e+01
3.413211e+01
6.977456e+01
3.387852e+01
7.010046e+01
3.420442e+01
7.040916e+01
3.396542e+01
7.068821e+01
3.424447e+01
7.097158e+01
3.402581e+01
7.121043e+01
3.426465e+01
7.146530e+01
3.406856e+01
7.166952e+01
3.427279e+01
7.189532e+01
3.409952e+01
7.206961e+01
3.427381e+01
7.226720e+01
3.412253e+01
7.241544e+01
3.427077e+01
7.258641e+01
3.414013e+01
7.271183e+01
3.426555e+01
7.285805e+01
3.415401e+01
7.296333e+01
3.425929e+01
7.308669e+01
3.416531e+01
7.317402e+01
3.425264e+01
7.327631e+01
3.417479e+01
7.334747e+01
3.424595e+01
7.343027e+01
3.418300e+01
7.348668e+01
3.423941e+01
7.355132e+01
3.419030e+01
7.359410e+01
3.423308e+01
7.364164e+01
3.419698e+01
7.367162e+01
3.422696e+01
7.370287e+01
3.420324e+01
7.372063e+01
3.422100e+01
7.373613e+01
3.420925e+01
7.374201e+01
3.421513e+01
</DataArray>
<DataArray type="Float32" Name="V2" format="ascii">
9.331049e-01
1.040000e+00
9.349138e-01
1.041631e+00
9.349138e-01
1.041631e+00
9.401763e-01
1.046530e+00
9.401763e-01
1.046530e+00
9.487625e-01
1.054721e+00
9.487625e-01
1.054721e+00
9.602085e-01
1.066219e+00
9.602085e-01
1.066219e+00
9.740264e-01
1.080848e+00
9.740264e-01
1.080848e+00
9.870280e-01
1.093454e+00
9.870280e-01
1.093454e+00
9.983789e-01
1.104347e+00
9.983789e-01
1.104347e+00
1.008115e+00
1.113842e+00
1.008115e+00
1.113842e+00
1.016563e+00
1.122148e+00
1.016563e+00
1.122148e+00
1.023926e+00
1.129409e+00
1.023926e+00
1.129409e+00
1.030374e+00
1.135773e+00
1.030374e+00
1.135773e+00
1.036044e+00
1.141367e+00
1.036044e+00
1.141367e+00
1.041048e+00
1.146300e+00
1.041048e+00
1.146300e+00
1.045478e+00
1.150662e+00
1.045478e+00
1.150662e+00
1.049408e+00
1.154529e+00
1.049408e+00
1.154529e+00
1.052900e+00
1.157963e+00
1.052900e+00
1.157963e+00
1.056005e+00
1.161015e+00
1.056005e+00
1.161015e+00
1.058763e+00
1.163726e+00
1.058763e+00
1.163726e+00
1.061210e+00
1.166130e+00
1.061210e+00
1.166130e+00
1.063373e+00
1.168256e+00
1.063373e+00
1.168256e+00
1.065276e+00
1.170126e+00
1.065276e+00
1.170126e+00
1.066938e+00
1.171759e+00
1.066938e+00
1.171759e+00
1.068373e+00
1.173169e+00
1.068373e+00
1.173169e+00
1.069595e+00
1.174371e+00
1.069595e+00
1.174371e+00
1.070614e+00
1.175372e+00
1.070614e+00
1.175372e+00
1.071437e+00
1.176182e+00
1.071437e+00
1.176182e+00
1.072072e+00
1.176806e+00
1.072072e+00
1.176806e+00
1.072521e+00
1.177248e+00
1.072521e+00
1.177248e+00
1.072790e+00
1.177512e+00
1.072790e+00
1.177512e+00
1.072880e+00
1.177600e+00
</DataArray>
<DataArray type="Float32" Name="V3" format="ascii">
0.000000e+00
0.000000e+00
7.857481e-03
3.881868e-03
7.857481e-03
3.881868e-03
1.519319e-02
7.629424e-03
1.519319e-02
7.629424e-03
2.145542e-02
1.109708e-02
2.145542e-02
1.109708e-02
2.608345e-02
1.404384e-02
2.608345e-02
1.404384e-02
2.878807e-02
1.552747e-02
2.878807e-02
1.552747e-02
3.033350e-02
1.620697e-02
3.033350e-02
1.620697e-02
3.087647e-02
1.727998e-02
3.087647e-02
1.727998e-02
3.094527e-02
1.846657e-02
3.094527e-02
1.846657e-02
3.068182e-02
1.953029e-02
3.068182e-02
1.953029e-02
3.017172e-02
2.036013e-02
3.017172e-02
2.036013e-02
2.946738e-02
2.091621e-02
2.946738e-02
2.091621e-02
2.860445e-02
2.119500e-02
2.860445e-02
2.119500e-02
2.760764e-02
2.121026e-02
2.760764e-02
2.121026e-02
2.649486e-02
2.098329e-02
2.649486e-02
2.098329e-02
2.527967e-02
2.053779e-02
2.527967e-02
2.053779e-02
2.397290e-02
1.989742e-02
2.397290e-02
1.989742e-02
2.258362e-02
1.908448e-02
2.258362e-02
1.908448e-02
2.111970e-02
1.811948e-02
2.111970e-02
1.811948e-02
1.958829e-02
1.702103e-02
1.958829e-02
1.702103e-02
1.799597e-02
1.580588e-02
1.799597e-02
1.580588e-02
1.634896e-02
1.448915e-02
1.634896e-02
1.448915e-02
1.465320e-02
1.308450e-02
1.465320e-02
1.308450e-02
1.291447e-02
1.160436e-02
1.291447e-02
1.160436e-02
1.113835e-02
1.006014e-02
1.113835e-02
1.006014e-02
9.330356e-03
8.462385e-03
9.330356e-03
8.462385e-03
7.495900e-03
6.820980e-03
7.495900e-03
6.820980e-03
5.640339e-03
5.145254e-03
5.640339e-03
5.145254e-03
3.768985e-03
3.444130e-03
3.768985e-03
3.444130e-03
1.887118e-03
1.726235e-03
1.887118e-03
1.726235e-03
0.000000e+00
0.000000e+00
</DataArray>
<DataArray type="Float32" Name="V4" format="ascii">
8.500000e-01
1.000000e+00
8.500000e-01
1.000000e+00
8.500000e-01
1.000000e+00
8.500000e-01
1.000000e+00
8.500000e-01
1.000000e+00
8.500000e-01
1.000000e+00
8.500000e-01
1.000000e+00
8.500000e-01
1.000000e+00
8.500000e-01
1.000000e+00
8.500000e-01
1.000000e+00
8.500000e-01
1.000000e+00
8.500000e-01
1.000000e+00
8.500000e-01
1.000000e+00
8.500000e-01
1.000000e+00
8.500000e-01
1.000000e+00
8.500000e-01
1.000000e+00
8.500000e-01
1.000000e+00
8.500000e-01
1.000000e+00
8.500000e-01
1.000000e+00
8.500000e-01
1.000000e+00
8.500000e-01
1.000000e+00
8.500000e-01
1.000000e+00
8.500000e-01
1.000000e+00
8.500000e-01
1.000000e+00
8.500000e-01
1.000000e+00
8.500000e-01
1.000000e+00
8.500000e-01
1.000000e+00
8.500000e-01
1.000000e+00
8.500000e-01
1.000000e+00
8.500000e-01
1.000000e+00
8.500000e-01
1.000000e+00
8.500000e-01
1.000000e+00
8.500000e-01
1.000000e+00
8.500000e-01
1.000000e+00
8.500000e-01
1.000000e+00
8.500000e-01
1.000000e+00
8.500000e-01
1.000000e+00
8.500000e-01
1.000000e+00
8.500000e-01
1.000000e+00
8.500000e-01
1.000000e+00
8.500000e-01
1.000000e+00
8.500000e-01
1.000000e+00
8.500000e-01
1.000000e+00
8.500000e-01
1.000000e+00
8.500000e-01
1.000000e+00
8.500000e-01
1.000000e+00
8.500000e-01
1.000000e+00
8.500000e-01
1.000000e+00
8.500000e-01
1.000000e+00
8.500000e-01
1.000000e+00
8.500000e-01
1.000000e+00
8.500000e-01
1.000000e+00
8.500000e-01
1.000000e+00
8.500000e-01
1.000000e+00
8.500000e-01
1.000000e+00
8.500000e-01
1.000000e+00
8.500000e-01
1.000000e+00
8.500000e-01
1.000000e+00
8.500000e-01
1.000000e+00
8.500000e-01
1.000000e+00
</DataArray>
<DataArray type="Float32" Name="V5" format="ascii">
0.000000e+00
0.000000e+00
5.235988e-02
5.235988e-02
5.235988e-02
5.235988e-02
1.047198e-01
1.047198e-01
1.047198e-01
1.047198e-01
1.570796e-01
1.570796e-01
1.570796e-01
1.570796e-01
2.094395e-01
2.094395e-01
2.094395e-01
2.094395e-01
2.617994e-01
2.617994e-01
2.617994e-01
2.617994e-01
3.141593e-01
3.141593e-01
3.141593e-01
3.141593e-01
3.665191e-01
3.665191e-01
3.665191e-01
3.665191e-01
4.188790e-01
4.188790e-01
4.188790e-01
4.188790e-01
4.712389e-01
4.712389e-01
4.712389e-01
4.712389e-01
5.235988e-01
5.235988e-01
5.235988e-01
5.235988e-01
5.759587e-01
5.759587e-01
5.759587e-01
5.759587e-01
6.283185e-01
6.283185e-01
6.283185e-01
6.283185e-01
6.806784e-01
6.806784e-01
6.806784e-01
6.806784e-01
7.330383e-01
7.330383e-01
7.330383e-01
7.330383e-01
7.853982e-01
7.853982e-01
7.853982e-01
7.853982e-01
8.377580e-01
8.377580e-01
8.377580e-01
8.377580e-01
8.901179e-01
8.901179e-01
8.901179e-01
8.901179e-01
9.424778e-01
9.424778e-01
9.424778e-01
9.424778e-01
9.948377e-01
9.948377e-01
9.948377e-01
9.948377e-01
1.047198e+00
1.047198e+00
1.047198e+00
1.047198e+00
1.099557e+00
1.099557e+00
1.099557e+00
1.099557e+00
1.151917e+00
1.151917e+00
1.151917e+00
1.151917e+00
1.204277e+00
1.204277e+00
1.204277e+00
1.204277e+00
1.256637e+00
1.256637e+00
1.256637e+00
1.256637e+00
1.308997e+00
1.308997e+00
1.308997e+00
1.308997e+00
1.361357e+00
1.361357e+00
1.361357e+00
1.361357e+00
1.413717e+00
1.413717e+00
1.413717e+00
1.413717e+00
1.466077e+00
1.466077e+00
1.466077e+00
1.466077e+00
1.518436e+00
1.518436e+00
1.518436e+00
1.518436e+00
1.570796e+00
1.570796e+00
</DataArray>
</PointData>
</Piece></UnstructuredGrid>
</VTKFile>
