<?xml version="1.0"?>
<VTKFile type="UnstructuredGrid" version="0.1" byte_order="LittleEndian" compressor="vtkZLibDataCompressor">
<UnstructuredGrid>
<Piece NumberOfPoints="120" NumberOfCells="30">
<Points>
<DataArray type="Float32" NumberOfComponents="3" format="ascii">
0.000000e+00 4.253945e-01 0.000000e+00
0.000000e+00 4.800000e-01 0.000000e+00
8.037559e-02 4.254365e-01 0.000000e+00
8.038227e-02 4.800000e-01 0.000000e+00
8.037559e-02 4.254365e-01 0.000000e+00
8.038227e-02 4.800000e-01 0.000000e+00
1.607533e-01 4.255119e-01 0.000000e+00
1.607659e-01 4.800000e-01 0.000000e+00
1.607533e-01 4.255119e-01 0.000000e+00
1.607659e-01 4.800000e-01 0.000000e+00
2.411317e-01 4.256374e-01 0.000000e+00
2.411502e-01 4.800000e-01 0.000000e+00
2.411317e-01 4.256374e-01 0.000000e+00
2.411502e-01 4.800000e-01 0.000000e+00
3.215115e-01 4.258131e-01 0.000000e+00
3.215358e-01 4.800000e-01 0.000000e+00
3.215115e-01 4.258131e-01 0.000000e+00
3.215358e-01 4.800000e-01 0.000000e+00
4.018934e-01 4.260387e-01 0.000000e+00
4.019233e-01 4.800000e-01 0.000000e+00
4.018934e-01 4.260387e-01 0.000000e+00
4.019233e-01 4.800000e-01 0.000000e+00
4.822780e-01 4.263138e-01 0.000000e+00
4.823133e-01 4.800000e-01 0.000000e+00
4.822780e-01 4.263138e-01 0.000000e+00
4.823133e-01 4.800000e-01 0.000000e+00
5.626663e-01 4.266383e-01 0.000000e+00
5.627067e-01 4.800000e-01 0.000000e+00
5.626663e-01 4.266383e-01 0.000000e+00
5.627067e-01 4.800000e-01 0.000000e+00
6.430594e-01 4.270117e-01 0.000000e+00
6.431045e-01 4.800000e-01 0.000000e+00
6.430594e-01 4.270117e-01 0.000000e+00
6.431045e-01 4.800000e-01 0.000000e+00
7.234584e-01 4.274335e-01 0.000000e+00
7.235083e-01 4.800000e-01 0.000000e+00
7.234584e-01 4.274335e-01 0.000000e+00
7.235083e-01 4.800000e-01 0.000000e+00
8.038648e-01 4.279034e-01 0.000000e+00
8.039197e-01 4.800000e-01 0.000000e+00
8.038648e-01 4.279034e-01 0.000000e+00
8.039197e-01 4.800000e-01 0.000000e+00
8.842803e-01 4.284208e-01 0.000000e+00
8.843413e-01 4.800000e-01 0.000000e+00
8.842803e-01 4.284208e-01 0.000000e+00
8.843413e-01 4.800000e-01 0.000000e+00
9.647065e-01 4.289851e-01 0.000000e+00
9.647767e-01 4.800000e-01 0.000000e+00
9.647065e-01 4.289851e-01 0.000000e+00
9.647767e-01 4.800000e-01 0.000000e+00
1.045145e+00 4.295956e-01 0.000000e+00
1.045231e+00 4.800000e-01 0.000000e+00
1.045145e+00 4.295956e-01 0.000000e+00
1.045231e+00 4.800000e-01 0.000000e+00
1.125596e+00 4.302513e-01 0.000000e+00
1.125713e+00 4.800000e-01 0.000000e+00
1.125596e+00 4.302513e-01 0.000000e+00
1.125713e+00 4.800000e-01 0.000000e+00
1.206057e+00 4.309507e-01 0.000000e+00
1.206235e+00 4.800000e-01 0.000000e+00
1.206057e+00 4.309507e-01 0.000000e+00
1.206235e+00 4.800000e-01 0.000000e+00
1.286520e+00 4.316910e-01 0.000000e+00
1.286823e+00 4.800000e-01 0.000000e+00
1.286520e+00 4.316910e-01 0.000000e+00
1.286823e+00 4.800000e-01 0.000000e+00
1.366966e+00 4.324669e-01 0.000000e+00
1.367519e+00 4.800000e-01 0.000000e+00
1.366966e+00 4.324669e-01 0.000000e+00
1.367519e+00 4.800000e-01 0.000000e+00
1.447346e+00 4.332694e-01 0.000000e+00
1.448408e+00 4.800000e-01 0.000000e+00
1.447346e+00 4.332694e-01 0.000000e+00
1.448408e+00 4.800000e-01 0.000000e+00
1.527556e+00 4.340865e-01 0.000000e+00
1.529655e+00 4.800000e-01 0.000000e+00
1.527556e+00 4.340865e-01 0.000000e+00
1.529655e+00 4.800000e-01 0.000000e+00
1.607364e+00 4.349183e-01 0.000000e+00
1.611589e+00 4.800000e-01 0.000000e+00
1.607364e+00 4.349183e-01 0.000000e+00
1.611589e+00 4.800000e-01 0.000000e+00
1.686230e+00 4.358269e-01 0.000000e+00
1.694845e+00 4.800000e-01 0.000000e+00
1.686230e+00 4.358269e-01 0.000000e+00
1.694845e+00 4.800000e-01 0.000000e+00
1.763701e+00 4.356226e-01 0.000000e+00
1.777133e+00 4.786709e-01 0.000000e+00
1.763701e+00 4.356226e-01 0.000000e+00
1.777133e+00 4.786709e-01 0.000000e+00
1.838536e+00 4.204273e-01 0.000000e+00
1.856113e+00 4.600685e-01 0.000000e+00
1.838536e+00 4.204273e-01 0.000000e+00
1.856113e+00 4.600685e-01 0.000000e+00
1.907250e+00 3.886045e-01 0.000000e+00
1.930155e+00 4.241243e-01 0.000000e+00
1.907250e+00 3.886045e-01 0.000000e+00
1.930155e+00 4.241243e-01 0.000000e+00
1.967871e+00 3.433234e-01 0.000000e+00
1.995866e+00 3.737661e-01 0.000000e+00
1.967871e+00 3.433234e-01 0.000000e+00
1.995866e+00 3.737661e-01 0.000000e+00
2.019001e+00 2.871666e-01 0.000000e+00
2.051215e+00 3.118880e-01 0.000000e+00
2.019001e+00 2.871666e-01 0.000000e+00
2.051215e+00 3.118880e-01 0.000000e+00
2.059629e+00 2.225444e-01 0.000000e+00
2.095029e+00 2.412095e-01 0.000000e+00
2.059629e+00 2.225444e-01 0.000000e+00
2.095029e+00 2.412095e-01 0.000000e+00
2.089067e+00 1.517283e-01 0.000000e+00
2.126653e+00 1.641997e-01 0.000000e+00
2.089067e+00 1.517283e-01 0.000000e+00
2.126653e+00 1.641997e-01 0.000000e+00
2.106885e+00 7.686356e-02 0.000000e+00
2.145739e+00 8.310171e-02 0.000000e+00
2.106885e+00 7.686356e-02 0.000000e+00
2.145739e+00 8.310171e-02 0.000000e+00
2.112849e+00 1.034575e-11 0.000000e+00
2.152118e+00 1.053803e-11 0.000000e+00
</DataArray>
</Points>
<Cells>
<DataArray type="Int32" Name="connectivity" format="ascii">
0 1 3 2
4 5 7 6
8 9 11 10
12 13 15 14
16 17 19 18
20 21 23 22
24 25 27 26
28 29 31 30
32 33 35 34
36 37 39 38
40 41 43 42
44 45 47 46
48 49 51 50
52 53 55 54
56 57 59 58
60 61 63 62
64 65 67 66
68 69 71 70
72 73 75 74
76 77 79 78
80 81 83 82
84 85 87 86
88 89 91 90
92 93 95 94
96 97 99 98
100 101 103 102
104 105 107 106
108 109 111 110
112 113 115 114
116 117 119 118
</DataArray>
<DataArray type="Int32" Name="offsets" format="ascii">
4
8
12
16
20
24
28
32
36
40
44
48
52
56
60
64
68
72
76
80
84
88
92
96
100
104
108
112
116
120
</DataArray>
<DataArray type="UInt8" Name="types" format="ascii">
9
9
9
9
9
9
9
9
9
9
9
9
9
9
9
9
9
9
9
9
9
9
9
9
9
9
9
9
9
9
</DataArray>
</Cells>
<PointData>
<DataArray type="Float32" Name="V1" format="ascii">
1.316817e+03
2.100161e+02
1.318468e+03
2.116668e+02
1.319842e+03
2.105789e+02
1.324303e+03
2.150397e+02
1.327182e+03
2.129237e+02
1.334675e+03
2.204161e+02
1.339030e+03
2.172177e+02
1.349636e+03
2.278233e+02
1.355509e+03
2.235086e+02
1.369349e+03
2.373480e+02
1.376799e+03
2.318715e+02
1.394031e+03
2.491035e+02
1.403135e+03
2.424078e+02
1.423961e+03
2.632331e+02
1.434813e+03
2.552475e+02
1.459479e+03
2.799140e+02
1.472193e+03
2.705529e+02
1.501003e+03
2.993622e+02
1.515713e+03
2.885240e+02
1.549028e+03
3.218394e+02
1.565888e+03
3.094059e+02
1.604145e+03
3.476629e+02
1.623324e+03
3.334999e+02
1.667045e+03
3.772200e+02
1.688716e+03
3.611814e+02
1.738527e+03
4.109919e+02
1.762840e+03
3.929301e+02
1.819503e+03
4.495921e+02
1.846522e+03
4.293842e+02
1.910975e+03
4.938378e+02
1.940539e+03
4.714447e+02
2.013977e+03
5.448827e+02
2.045410e+03
5.204836e+02
2.129403e+03
6.044760e+02
2.160907e+03
5.787915e+02
2.257584e+03
6.754686e+02
2.285036e+03
6.506089e+02
2.397214e+03
7.627866e+02
2.411943e+03
7.446934e+02
2.542504e+03
8.752547e+02
2.527882e+03
8.807773e+02
2.675895e+03
1.028790e+03
2.571735e+03
1.126490e+03
2.779296e+03
1.334050e+03
2.685384e+03
1.414220e+03
2.862703e+03
1.591539e+03
2.860664e+03
1.592395e+03
3.033400e+03
1.765131e+03
3.072853e+03
1.739259e+03
3.235790e+03
1.902195e+03
3.288394e+03
1.865265e+03
3.433641e+03
2.010512e+03
3.485264e+03
1.972714e+03
3.605529e+03
2.092979e+03
3.648676e+03
2.060637e+03
3.738344e+03
2.150305e+03
3.768907e+03
2.127114e+03
3.824161e+03
2.182368e+03
3.839930e+03
2.170334e+03
3.858584e+03
2.188988e+03
</DataArray>
<DataArray type="Float32" Name="V2" format="ascii">
4.253945e-01
4.800000e-01
4.290600e-01
4.835491e-01
4.290600e-01
4.835491e-01
4.399842e-01
4.941751e-01
4.399842e-01
4.941751e-01
4.581184e-01
5.118146e-01
4.581184e-01
5.118146e-01
4.833540e-01
5.363619e-01
4.833540e-01
5.363619e-01
5.155394e-01
5.676698e-01
5.155394e-01
5.676698e-01
5.544807e-01
6.055501e-01
5.544807e-01
6.055501e-01
5.999428e-01
6.497746e-01
5.999428e-01
6.497746e-01
6.516504e-01
7.000760e-01
6.516504e-01
7.000760e-01
7.092893e-01
7.561490e-01
7.092893e-01
7.561490e-01
7.725076e-01
8.176520e-01
7.725076e-01
8.176520e-01
8.409174e-01
8.842087e-01
8.409174e-01
8.842087e-01
9.140964e-01
9.554097e-01
9.140964e-01
9.554097e-01
9.915894e-01
1.030815e+00
9.915894e-01
1.030815e+00
1.072909e+00
1.109958e+00
1.072909e+00
1.109958e+00
1.157539e+00
1.192349e+00
1.157539e+00
1.192349e+00
1.244928e+00
1.277479e+00
1.244928e+00
1.277479e+00
1.334492e+00
1.364836e+00
1.334492e+00
1.364836e+00
1.425597e+00
1.453924e+00
1.425597e+00
1.453924e+00
1.517536e+00
1.544304e+00
1.517536e+00
1.544304e+00
1.609477e+00
1.635677e+00
1.609477e+00
1.635677e+00
1.700303e+00
1.728033e+00
1.700303e+00
1.728033e+00
1.788405e+00
1.818185e+00
1.788405e+00
1.818185e+00
1.867089e+00
1.897705e+00
1.867089e+00
1.897705e+00
1.933988e+00
1.966748e+00
1.933988e+00
1.966748e+00
1.989676e+00
2.024597e+00
1.989676e+00
2.024597e+00
2.034586e+00
2.071236e+00
2.034586e+00
2.071236e+00
2.069085e+00
2.106969e+00
2.069085e+00
2.106969e+00
2.093483e+00
2.132167e+00
2.093483e+00
2.132167e+00
2.108021e+00
2.147148e+00
2.108021e+00
2.147148e+00
2.112849e+00
2.152118e+00
</DataArray>
<DataArray type="Float32" Name="V3" format="ascii">
0.000000e+00
0.000000e+00
5.799981e-02
5.515085e-02
5.799981e-02
5.515085e-02
1.153946e-01
1.097115e-01
1.153946e-01
1.097115e-01
1.715787e-01
1.630927e-01
1.715787e-01
1.630927e-01
2.259542e-01
2.147119e-01
2.259542e-01
2.147119e-01
2.779323e-01
2.639949e-01
2.779323e-01
2.639949e-01
3.269354e-01
3.103790e-01
3.269354e-01
3.103790e-01
3.724008e-01
3.533153e-01
3.724008e-01
3.533153e-01
4.137827e-01
3.922716e-01
4.137827e-01
3.922716e-01
4.505554e-01
4.267351e-01
4.505554e-01
4.267351e-01
4.822157e-01
4.562149e-01
4.822157e-01
4.562149e-01
5.082852e-01
4.802443e-01
5.082852e-01
4.802443e-01
5.283128e-01
4.983838e-01
5.283128e-01
4.983838e-01
5.418768e-01
5.102233e-01
5.418768e-01
5.102233e-01
5.485862e-01
5.153849e-01
5.485862e-01
5.153849e-01
5.480827e-01
5.135260e-01
5.480827e-01
5.135260e-01
5.400412e-01
5.043431e-01
5.400412e-01
5.043431e-01
5.241695e-01
4.875777e-01
5.241695e-01
4.875777e-01
5.002061e-01
4.630247e-01
5.002061e-01
4.630247e-01
4.679109e-01
4.305480e-01
4.679109e-01
4.305480e-01
4.270316e-01
3.901023e-01
4.270316e-01
3.901023e-01
3.772078e-01
3.417604e-01
3.772078e-01
3.417604e-01
3.194008e-01
2.855376e-01
3.194008e-01
2.855376e-01
2.663697e-01
2.356606e-01
2.663697e-01
2.356606e-01
2.197878e-01
1.930845e-01
2.197878e-01
1.930845e-01
1.776977e-01
1.555379e-01
1.776977e-01
1.555379e-01
1.388826e-01
1.213990e-01
1.388826e-01
1.213990e-01
1.023924e-01
8.949483e-02
1.023924e-01
8.949483e-02
6.746991e-02
5.899564e-02
6.746991e-02
5.899564e-02
3.350764e-02
2.931149e-02
3.350764e-02
2.931149e-02
0.000000e+00
0.000000e+00
</DataArray>
<DataArray type="Float32" Name="V4" format="ascii">
8.500000e-01
1.000000e+00
8.500000e-01
1.000000e+00
8.500000e-01
1.000000e+00
8.500000e-01
1.000000e+00
8.500000e-01
1.000000e+00
8.500000e-01
1.000000e+00
8.500000e-01
1.000000e+00
8.500000e-01
1.000000e+00
8.500000e-01
1.000000e+00
8.500000e-01
1.000000e+00
8.500000e-01
1.000000e+00
8.500000e-01
1.000000e+00
8.500000e-01
1.000000e+00
8.500000e-01
1.000000e+00
8.500000e-01
1.000000e+00
8.500000e-01
1.000000e+00
8.500000e-01
1.000000e+00
8.500000e-01
1.000000e+00
8.500000e-01
1.000000e+00
8.500000e-01
1.000000e+00
8.500000e-01
1.000000e+00
8.500000e-01
1.000000e+00
8.500000e-01
1.000000e+00
8.500000e-01
1.000000e+00
8.500000e-01
1.000000e+00
8.500000e-01
1.000000e+00
8.500000e-01
1.000000e+00
8.500000e-01
1.000000e+00
8.500000e-01
1.000000e+00
8.500000e-01
1.000000e+00
8.500000e-01
1.000000e+00
8.500000e-01
1.000000e+00
8.500000e-01
1.000000e+00
8.500000e-01
1.000000e+00
8.500000e-01
1.000000e+00
8.500000e-01
1.000000e+00
8.500000e-01
1.000000e+00
8.500000e-01
1.000000e+00
8.500000e-01
1.000000e+00
8.500000e-01
1.000000e+00
8.500000e-01
1.000000e+00
8.500000e-01
1.000000e+00
8.500000e-01
1.000000e+00
8.500000e-01
1.000000e+00
8.500000e-01
1.000000e+00
8.500000e-01
1.000000e+00
8.500000e-01
1.000000e+00
8.500000e-01
1.000000e+00
8.500000e-01
1.000000e+00
8.500000e-01
1.000000e+00
8.500000e-01
1.000000e+00
8.500000e-01
1.000000e+00
8.500000e-01
1.000000e+00
8.500000e-01
1.000000e+00
8.500000e-01
1.000000e+00
8.500000e-01
1.000000e+00
8.500000e-01
1.000000e+00
8.500000e-01
1.000000e+00
8.500000e-01
1.000000e+00
8.500000e-01
1.000000e+00
</DataArray>
<DataArray type="Float32" Name="V5" format="ascii">
0.000000e+00
0.000000e+00
5.235988e-02
5.235988e-02
5.235988e-02
5.235988e-02
1.047198e-01
1.047198e-01
1.047198e-01
1.047198e-01
1.570796e-01
1.570796e-01
1.570796e-01
1.570796e-01
2.094395e-01
2.094395e-01
2.094395e-01
2.094395e-01
2.617994e-01
2.617994e-01
2.617994e-01
2.617994e-01
3.141593e-01
3.141593e-01
3.141593e-01
3.141593e-01
3.665191e-01
3.665191e-01
3.665191e-01
3.665191e-01
4.188790e-01
4.188790e-01
4.188790e-01
4.188790e-01
4.712389e-01
4.712389e-01
4.712389e-01
4.712389e-01
5.235988e-01
5.235988e-01
5.235988e-01
5.235988e-01
5.759587e-01
5.759587e-01
5.759587e-01
5.759587e-01
6.283185e-01
6.283185e-01
6.283185e-01
6.283185e-01
6.806784e-01
6.806784e-01
6.806784e-01
6.806784e-01
7.330383e-01
7.330383e-01
7.330383e-01
7.330383e-01
7.853982e-01
7.853982e-01
7.853982e-01
7.853982e-01
8.377580e-01
8.377580e-01
8.377580e-01
8.377580e-01
8.901179e-01
8.901179e-01
8.901179e-01
8.901179e-01
9.424778e-01
9.424778e-01
9.424778e-01
9.424778e-01
9.948377e-01
9.948377e-01
9.948377e-01
9.948377e-01
1.047198e+00
1.047198e+00
1.047198e+00
1.047198e+00
1.099557e+00
1.099557e+00
1.099557e+00
1.099557e+00
1.151917e+00
1.151917e+00
1.151917e+00
1.151917e+00
1.204277e+00
1.204277e+00
1.204277e+00
1.204277e+00
1.256637e+00
1.256637e+00
1.256637e+00
1.256637e+00
1.308997e+00
1.308997e+00
1.308997e+00
1.308997e+00
1.361357e+00
1.361357e+00
1.361357e+00
1.361357e+00
1.413717e+00
1.413717e+00
1.413717e+00
1.413717e+00
1.466077e+00
1.466077e+00
1.466077e+00
1.466077e+00
1.518436e+00
1.518436e+00
1.518436e+00
1.518436e+00
1.570796e+00
1.570796e+00
</DataArray>
</PointData>
</Piece></UnstructuredGrid>
</VTKFile>
