<?xml version="1.0"?>
<VTKFile type="UnstructuredGrid" version="0.1" byte_order="LittleEndian" compressor="vtkZLibDataCompressor">
<UnstructuredGrid>
<Piece NumberOfPoints="120" NumberOfCells="30">
<Points>
<DataArray type="Float32" NumberOfComponents="3" format="ascii">
0.000000e+00 8.146611e-01 0.000000e+00
0.000000e+00 9.200000e-01 0.000000e+00
5.777745e-02 8.147223e-01 0.000000e+00
5.802496e-02 9.200000e-01 0.000000e+00
5.777745e-02 8.147223e-01 0.000000e+00
5.802496e-02 9.200000e-01 0.000000e+00
1.155200e-01 8.148548e-01 0.000000e+00
1.160907e-01 9.200000e-01 0.000000e+00
1.155200e-01 8.148548e-01 0.000000e+00
1.160907e-01 9.200000e-01 0.000000e+00
1.731830e-01 8.150832e-01 0.000000e+00
1.742540e-01 9.200000e-01 0.000000e+00
1.731830e-01 8.150832e-01 0.000000e+00
1.742540e-01 9.200000e-01 0.000000e+00
2.307039e-01 8.154164e-01 0.000000e+00
2.325954e-01 9.200000e-01 0.000000e+00
2.307039e-01 8.154164e-01 0.000000e+00
2.325954e-01 9.200000e-01 0.000000e+00
2.879821e-01 8.158591e-01 0.000000e+00
2.912329e-01 9.200000e-01 0.000000e+00
2.879821e-01 8.158591e-01 0.000000e+00
2.912329e-01 9.200000e-01 0.000000e+00
3.448464e-01 8.163900e-01 0.000000e+00
3.503215e-01 9.200000e-01 0.000000e+00
3.448464e-01 8.163900e-01 0.000000e+00
3.503215e-01 9.200000e-01 0.000000e+00
4.010082e-01 8.168810e-01 0.000000e+00
4.100152e-01 9.200000e-01 0.000000e+00
4.010082e-01 8.168810e-01 0.000000e+00
4.100152e-01 9.200000e-01 0.000000e+00
4.560987e-01 8.169569e-01 0.000000e+00
4.702192e-01 9.200000e-01 0.000000e+00
4.560987e-01 8.169569e-01 0.000000e+00
4.702192e-01 9.200000e-01 0.000000e+00
5.102582e-01 8.153030e-01 0.000000e+00
5.294713e-01 9.179445e-01 0.000000e+00
5.102582e-01 8.153030e-01 0.000000e+00
5.294713e-01 9.179445e-01 0.000000e+00
5.628934e-01 8.081836e-01 0.000000e+00
5.883465e-01 9.086693e-01 0.000000e+00
5.628934e-01 8.081836e-01 0.000000e+00
5.883465e-01 9.086693e-01 0.000000e+00
6.139824e-01 7.959149e-01 0.000000e+00
6.466340e-01 8.936042e-01 0.000000e+00
6.139824e-01 7.959149e-01 0.000000e+00
6.466340e-01 8.936042e-01 0.000000e+00
6.634510e-01 7.786890e-01 0.000000e+00
7.034820e-01 8.730317e-01 0.000000e+00
6.634510e-01 7.786890e-01 0.000000e+00
7.034820e-01 8.730317e-01 0.000000e+00
7.111370e-01 7.569897e-01 0.000000e+00
7.583138e-01 8.474809e-01 0.000000e+00
7.111370e-01 7.569897e-01 0.000000e+00
7.583138e-01 8.474809e-01 0.000000e+00
7.568660e-01 7.312078e-01 0.000000e+00
8.107449e-01 8.174371e-01 0.000000e+00
7.568660e-01 7.312078e-01 0.000000e+00
8.107449e-01 8.174371e-01 0.000000e+00
8.004812e-01 7.017166e-01 0.000000e+00
8.605334e-01 7.833658e-01 0.000000e+00
8.004812e-01 7.017166e-01 0.000000e+00
8.605334e-01 7.833658e-01 0.000000e+00
8.418410e-01 6.688564e-01 0.000000e+00
9.075182e-01 7.456848e-01 0.000000e+00
8.418410e-01 6.688564e-01 0.000000e+00
9.075182e-01 7.456848e-01 0.000000e+00
8.808203e-01 6.329414e-01 0.000000e+00
9.515878e-01 7.047670e-01 0.000000e+00
8.808203e-01 6.329414e-01 0.000000e+00
9.515878e-01 7.047670e-01 0.000000e+00
9.173083e-01 5.942616e-01 0.000000e+00
9.926596e-01 6.609450e-01 0.000000e+00
9.173083e-01 5.942616e-01 0.000000e+00
9.926596e-01 6.609450e-01 0.000000e+00
9.512070e-01 5.530866e-01 0.000000e+00
1.030668e+00 6.145180e-01 0.000000e+00
9.512070e-01 5.530866e-01 0.000000e+00
1.030668e+00 6.145180e-01 0.000000e+00
9.824299e-01 5.096682e-01 0.000000e+00
1.065557e+00 5.657589e-01 0.000000e+00
9.824299e-01 5.096682e-01 0.000000e+00
1.065557e+00 5.657589e-01 0.000000e+00
1.010900e+00 4.642439e-01 0.000000e+00
1.097279e+00 5.149199e-01 0.000000e+00
1.010900e+00 4.642439e-01 0.000000e+00
1.097279e+00 5.149199e-01 0.000000e+00
1.036551e+00 4.170390e-01 0.000000e+00
1.125788e+00 4.622374e-01 0.000000e+00
1.036551e+00 4.170390e-01 0.000000e+00
1.125788e+00 4.622374e-01 0.000000e+00
1.059321e+00 3.682697e-01 0.000000e+00
1.151046e+00 4.079362e-01 0.000000e+00
1.059321e+00 3.682697e-01 0.000000e+00
1.151046e+00 4.079362e-01 0.000000e+00
1.079160e+00 3.181443e-01 0.000000e+00
1.173014e+00 3.522320e-01 0.000000e+00
1.079160e+00 3.181443e-01 0.000000e+00
1.173014e+00 3.522320e-01 0.000000e+00
1.096022e+00 2.668654e-01 0.000000e+00
1.191661e+00 2.953341e-01 0.000000e+00
1.096022e+00 2.668654e-01 0.000000e+00
1.191661e+00 2.953341e-01 0.000000e+00
1.109869e+00 2.146311e-01 0.000000e+00
1.206958e+00 2.374470e-01 0.000000e+00
1.109869e+00 2.146311e-01 0.000000e+00
1.206958e+00 2.374470e-01 0.000000e+00
1.120671e+00 1.616360e-01 0.000000e+00
1.218881e+00 1.787721e-01 0.000000e+00
1.120671e+00 1.616360e-01 0.000000e+00
1.218881e+00 1.787721e-01 0.000000e+00
1.128404e+00 1.080724e-01 0.000000e+00
1.227411e+00 1.195079e-01 0.000000e+00
1.128404e+00 1.080724e-01 0.000000e+00
1.227411e+00 1.195079e-01 0.000000e+00
1.133051e+00 5.413061e-02 0.000000e+00
1.232535e+00 5.985185e-02 0.000000e+00
1.133051e+00 5.413061e-02 0.000000e+00
1.232535e+00 5.985185e-02 0.000000e+00
1.134601e+00 5.555680e-12 0.000000e+00
1.234244e+00 6.043580e-12 0.000000e+00
</DataArray>
</Points>
<Cells>
<DataArray type="Int32" Name="connectivity" format="ascii">
0 1 3 2
4 5 7 6
8 9 11 10
12 13 15 14
16 17 19 18
20 21 23 22
24 25 27 26
28 29 31 30
32 33 35 34
36 37 39 38
40 41 43 42
44 45 47 46
48 49 51 50
52 53 55 54
56 57 59 58
60 61 63 62
64 65 67 66
68 69 71 70
72 73 75 74
76 77 79 78
80 81 83 82
84 85 87 86
88 89 91 90
92 93 95 94
96 97 99 98
100 101 103 102
104 105 107 106
108 109 111 110
112 113 115 114
116 117 119 118
</DataArray>
<DataArray type="Int32" Name="offsets" format="ascii">
4
8
12
16
20
24
28
32
36
40
44
48
52
56
60
64
68
72
76
80
84
88
92
96
100
104
108
112
116
120
</DataArray>
<DataArray type="UInt8" Name="types" format="ascii">
9
9
9
9
9
9
9
9
9
9
9
9
9
9
9
9
9
9
9
9
9
9
9
9
9
9
9
9
9
9
</DataArray>
</Cells>
<PointData>
<DataArray type="Float32" Name="V1" format="ascii">
1.126562e+02
-2.669954e+01
1.127978e+02
-2.655793e+01
1.127071e+02
-2.652380e+01
1.130551e+02
-2.617582e+01
1.128063e+02
-2.604391e+01
1.134098e+02
-2.544046e+01
1.127759e+02
-2.507869e+01
1.136744e+02
-2.418018e+01
1.122599e+02
-2.332198e+01
1.135199e+02
-2.206196e+01
1.106412e+02
-2.020133e+01
1.123813e+02
-1.846130e+01
1.068993e+02
-1.466574e+01
1.094298e+02
-1.213528e+01
9.937890e+01
-4.508210e+00
1.036974e+02
-1.897508e-01
8.740502e+01
1.509657e+01
9.400801e+01
2.169956e+01
8.224611e+01
2.924247e+01
8.534560e+01
3.234196e+01
7.986328e+01
3.619186e+01
8.223085e+01
3.855943e+01
7.965555e+01
4.062711e+01
8.184033e+01
4.281189e+01
8.094543e+01
4.357809e+01
8.296489e+01
4.559755e+01
8.300802e+01
4.558101e+01
8.483757e+01
4.741057e+01
8.540716e+01
4.695143e+01
8.703592e+01
4.858019e+01
8.787208e+01
4.790069e+01
8.930319e+01
4.933180e+01
9.024801e+01
4.856754e+01
9.149405e+01
4.981359e+01
9.245212e+01
4.904451e+01
9.353003e+01
5.012242e+01
9.444622e+01
4.939296e+01
9.537402e+01
5.032075e+01
9.621852e+01
4.965359e+01
9.701349e+01
5.044856e+01
9.777217e+01
4.985339e+01
9.844996e+01
5.053117e+01
9.911809e+01
5.001022e+01
9.969235e+01
5.058448e+01
1.002706e+02
5.013598e+01
1.007530e+02
5.061837e+01
1.012447e+02
5.023860e+01
1.016450e+02
5.063889e+01
1.020549e+02
5.032346e+01
1.023811e+02
5.064969e+01
1.027140e+02
5.039422e+01
1.029727e+02
5.065287e+01
1.032332e+02
5.045345e+01
1.034293e+02
5.064960e+01
1.036212e+02
5.050296e+01
1.037586e+02
5.064043e+01
1.038849e+02
5.054407e+01
1.039663e+02
5.062551e+01
1.040289e+02
5.057775e+01
1.040559e+02
5.060473e+01
</DataArray>
<DataArray type="Float32" Name="V2" format="ascii">
8.146611e-01
9.200000e-01
8.166296e-01
9.217760e-01
8.166296e-01
9.217760e-01
8.224661e-01
9.270949e-01
8.224661e-01
9.270949e-01
8.321400e-01
9.359326e-01
8.321400e-01
9.359326e-01
8.455636e-01
9.482551e-01
8.455636e-01
9.482551e-01
8.625947e-01
9.640284e-01
8.625947e-01
9.640284e-01
8.829964e-01
9.832273e-01
8.829964e-01
9.832273e-01
9.063326e-01
1.005830e+00
9.063326e-01
1.005830e+00
9.318393e-01
1.031717e+00
9.318393e-01
1.031717e+00
9.580926e-01
1.058269e+00
9.580926e-01
1.058269e+00
9.813542e-01
1.081104e+00
9.813542e-01
1.081104e+00
1.001909e+00
1.101622e+00
1.001909e+00
1.101622e+00
1.019939e+00
1.119794e+00
1.019939e+00
1.119794e+00
1.035824e+00
1.135839e+00
1.035824e+00
1.135839e+00
1.049835e+00
1.149968e+00
1.049835e+00
1.149968e+00
1.062214e+00
1.162412e+00
1.062214e+00
1.162412e+00
1.073162e+00
1.173378e+00
1.073162e+00
1.173378e+00
1.082849e+00
1.183047e+00
1.082849e+00
1.183047e+00
1.091416e+00
1.191572e+00
1.091416e+00
1.191572e+00
1.098982e+00
1.199081e+00
1.098982e+00
1.199081e+00
1.105643e+00
1.205679e+00
1.105643e+00
1.205679e+00
1.111481e+00
1.211451e+00
1.111481e+00
1.211451e+00
1.116561e+00
1.216468e+00
1.116561e+00
1.216468e+00
1.120938e+00
1.220785e+00
1.120938e+00
1.220785e+00
1.124654e+00
1.224448e+00
1.124654e+00
1.224448e+00
1.127746e+00
1.227494e+00
1.127746e+00
1.227494e+00
1.130240e+00
1.229951e+00
1.130240e+00
1.229951e+00
1.132160e+00
1.231841e+00
1.132160e+00
1.231841e+00
1.133520e+00
1.233179e+00
1.133520e+00
1.233179e+00
1.134331e+00
1.233978e+00
1.134331e+00
1.233978e+00
1.134601e+00
1.234244e+00
</DataArray>
<DataArray type="Float32" Name="V3" format="ascii">
0.000000e+00
0.000000e+00
1.505899e-02
9.796360e-03
1.505899e-02
9.796360e-03
2.971166e-02
1.928855e-02
2.971166e-02
1.928855e-02
4.354371e-02
2.818896e-02
4.354371e-02
2.818896e-02
5.612786e-02
3.623391e-02
5.612786e-02
3.623391e-02
6.700949e-02
4.319584e-02
6.700949e-02
4.319584e-02
7.569003e-02
4.887988e-02
7.569003e-02
4.887988e-02
8.162940e-02
5.308361e-02
8.162940e-02
5.308361e-02
8.438064e-02
5.536887e-02
8.438064e-02
5.536887e-02
8.450360e-02
5.502434e-02
8.450360e-02
5.502434e-02
8.338820e-02
5.518835e-02
8.338820e-02
5.518835e-02
8.144262e-02
5.562119e-02
8.144262e-02
5.562119e-02
7.904120e-02
5.597371e-02
7.904120e-02
5.597371e-02
7.626823e-02
5.598349e-02
7.626823e-02
5.598349e-02
7.318752e-02
5.552874e-02
7.318752e-02
5.552874e-02
6.983710e-02
5.456577e-02
6.983710e-02
5.456577e-02
6.624444e-02
5.309641e-02
6.624444e-02
5.309641e-02
6.243038e-02
5.114677e-02
6.243038e-02
5.114677e-02
5.841254e-02
4.875490e-02
5.841254e-02
4.875490e-02
5.420702e-02
4.596373e-02
5.420702e-02
4.596373e-02
4.982934e-02
4.281698e-02
4.982934e-02
4.281698e-02
4.529488e-02
3.935715e-02
4.529488e-02
3.935715e-02
4.061907e-02
3.562448e-02
4.061907e-02
3.562448e-02
3.581742e-02
3.165665e-02
3.581742e-02
3.165665e-02
3.090555e-02
2.748880e-02
3.090555e-02
2.748880e-02
2.589913e-02
2.315378e-02
2.589913e-02
2.315378e-02
2.081390e-02
1.868242e-02
2.081390e-02
1.868242e-02
1.566561e-02
1.410391e-02
1.566561e-02
1.410391e-02
1.047001e-02
9.446150e-03
1.047001e-02
9.446150e-03
5.242890e-03
4.736075e-03
5.242890e-03
4.736075e-03
0.000000e+00
0.000000e+00
</DataArray>
<DataArray type="Float32" Name="V4" format="ascii">
8.500000e-01
1.000000e+00
8.500000e-01
1.000000e+00
8.500000e-01
1.000000e+00
8.500000e-01
1.000000e+00
8.500000e-01
1.000000e+00
8.500000e-01
1.000000e+00
8.500000e-01
1.000000e+00
8.500000e-01
1.000000e+00
8.500000e-01
1.000000e+00
8.500000e-01
1.000000e+00
8.500000e-01
1.000000e+00
8.500000e-01
1.000000e+00
8.500000e-01
1.000000e+00
8.500000e-01
1.000000e+00
8.500000e-01
1.000000e+00
8.500000e-01
1.000000e+00
8.500000e-01
1.000000e+00
8.500000e-01
1.000000e+00
8.500000e-01
1.000000e+00
8.500000e-01
1.000000e+00
8.500000e-01
1.000000e+00
8.500000e-01
1.000000e+00
8.500000e-01
1.000000e+00
8.500000e-01
1.000000e+00
8.500000e-01
1.000000e+00
8.500000e-01
1.000000e+00
8.500000e-01
1.000000e+00
8.500000e-01
1.000000e+00
8.500000e-01
1.000000e+00
8.500000e-01
1.000000e+00
8.500000e-01
1.000000e+00
8.500000e-01
1.000000e+00
8.500000e-01
1.000000e+00
8.500000e-01
1.000000e+00
8.500000e-01
1.000000e+00
8.500000e-01
1.000000e+00
8.500000e-01
1.000000e+00
8.500000e-01
1.000000e+00
8.500000e-01
1.000000e+00
8.500000e-01
1.000000e+00
8.500000e-01
1.000000e+00
8.500000e-01
1.000000e+00
8.500000e-01
1.000000e+00
8.500000e-01
1.000000e+00
8.500000e-01
1.000000e+00
8.500000e-01
1.000000e+00
8.500000e-01
1.000000e+00
8.500000e-01
1.000000e+00
8.500000e-01
1.000000e+00
8.500000e-01
1.000000e+00
8.500000e-01
1.000000e+00
8.500000e-01
1.000000e+00
8.500000e-01
1.000000e+00
8.500000e-01
1.000000e+00
8.500000e-01
1.000000e+00
8.500000e-01
1.000000e+00
8.500000e-01
1.000000e+00
8.500000e-01
1.000000e+00
8.500000e-01
1.000000e+00
8.500000e-01
1.000000e+00
</DataArray>
<DataArray type="Float32" Name="V5" format="ascii">
0.000000e+00
0.000000e+00
5.235988e-02
5.235988e-02
5.235988e-02
5.235988e-02
1.047198e-01
1.047198e-01
1.047198e-01
1.047198e-01
1.570796e-01
1.570796e-01
1.570796e-01
1.570796e-01
2.094395e-01
2.094395e-01
2.094395e-01
2.094395e-01
2.617994e-01
2.617994e-01
2.617994e-01
2.617994e-01
3.141593e-01
3.141593e-01
3.141593e-01
3.141593e-01
3.665191e-01
3.665191e-01
3.665191e-01
3.665191e-01
4.188790e-01
4.188790e-01
4.188790e-01
4.188790e-01
4.712389e-01
4.712389e-01
4.712389e-01
4.712389e-01
5.235988e-01
5.235988e-01
5.235988e-01
5.235988e-01
5.759587e-01
5.759587e-01
5.759587e-01
5.759587e-01
6.283185e-01
6.283185e-01
6.283185e-01
6.283185e-01
6.806784e-01
6.806784e-01
6.806784e-01
6.806784e-01
7.330383e-01
7.330383e-01
7.330383e-01
7.330383e-01
7.853982e-01
7.853982e-01
7.853982e-01
7.853982e-01
8.377580e-01
8.377580e-01
8.377580e-01
8.377580e-01
8.901179e-01
8.901179e-01
8.901179e-01
8.901179e-01
9.424778e-01
9.424778e-01
9.424778e-01
9.424778e-01
9.948377e-01
9.948377e-01
9.948377e-01
9.948377e-01
1.047198e+00
1.047198e+00
1.047198e+00
1.047198e+00
1.099557e+00
1.099557e+00
1.099557e+00
1.099557e+00
1.151917e+00
1.151917e+00
1.151917e+00
1.151917e+00
1.204277e+00
1.204277e+00
1.204277e+00
1.204277e+00
1.256637e+00
1.256637e+00
1.256637e+00
1.256637e+00
1.308997e+00
1.308997e+00
1.308997e+00
1.308997e+00
1.361357e+00
1.361357e+00
1.361357e+00
1.361357e+00
1.413717e+00
1.413717e+00
1.413717e+00
1.413717e+00
1.466077e+00
1.466077e+00
1.466077e+00
1.466077e+00
1.518436e+00
1.518436e+00
1.518436e+00
1.518436e+00
1.570796e+00
1.570796e+00
</DataArray>
</PointData>
</Piece></UnstructuredGrid>
</VTKFile>
