<?xml version="1.0"?>
<VTKFile type="UnstructuredGrid" version="0.1" byte_order="LittleEndian" compressor="vtkZLibDataCompressor">
<UnstructuredGrid>
<Piece NumberOfPoints="120" NumberOfCells="30">
<Points>
<DataArray type="Float32" NumberOfComponents="3" format="ascii">
0.000000e+00 4.563933e-01 0.000000e+00
0.000000e+00 5.200000e-01 0.000000e+00
7.446870e-02 4.564356e-01 0.000000e+00
7.447486e-02 5.200000e-01 0.000000e+00
7.446870e-02 4.564356e-01 0.000000e+00
7.447486e-02 5.200000e-01 0.000000e+00
1.489349e-01 4.565159e-01 0.000000e+00
1.489462e-01 5.200000e-01 0.000000e+00
1.489349e-01 4.565159e-01 0.000000e+00
1.489462e-01 5.200000e-01 0.000000e+00
2.233929e-01 4.566497e-01 0.000000e+00
2.234097e-01 5.200000e-01 0.000000e+00
2.233929e-01 4.566497e-01 0.000000e+00
2.234097e-01 5.200000e-01 0.000000e+00
2.978389e-01 4.568369e-01 0.000000e+00
2.978612e-01 5.200000e-01 0.000000e+00
2.978389e-01 4.568369e-01 0.000000e+00
2.978612e-01 5.200000e-01 0.000000e+00
3.722691e-01 4.570774e-01 0.000000e+00
3.722969e-01 5.200000e-01 0.000000e+00
3.722691e-01 4.570774e-01 0.000000e+00
3.722969e-01 5.200000e-01 0.000000e+00
4.466794e-01 4.573707e-01 0.000000e+00
4.467129e-01 5.200000e-01 0.000000e+00
4.466794e-01 4.573707e-01 0.000000e+00
4.467129e-01 5.200000e-01 0.000000e+00
5.210659e-01 4.577166e-01 0.000000e+00
5.211055e-01 5.200000e-01 0.000000e+00
5.210659e-01 4.577166e-01 0.000000e+00
5.211055e-01 5.200000e-01 0.000000e+00
5.954248e-01 4.581147e-01 0.000000e+00
5.954712e-01 5.200000e-01 0.000000e+00
5.954248e-01 4.581147e-01 0.000000e+00
5.954712e-01 5.200000e-01 0.000000e+00
6.697520e-01 4.585646e-01 0.000000e+00
6.698069e-01 5.200000e-01 0.000000e+00
6.697520e-01 4.585646e-01 0.000000e+00
6.698069e-01 5.200000e-01 0.000000e+00
7.440433e-01 4.590657e-01 0.000000e+00
7.441102e-01 5.200000e-01 0.000000e+00
7.440433e-01 4.590657e-01 0.000000e+00
7.441102e-01 5.200000e-01 0.000000e+00
8.182940e-01 4.596177e-01 0.000000e+00
8.183799e-01 5.200000e-01 0.000000e+00
8.182940e-01 4.596177e-01 0.000000e+00
8.183799e-01 5.200000e-01 0.000000e+00
8.924984e-01 4.602200e-01 0.000000e+00
8.926171e-01 5.200000e-01 0.000000e+00
8.924984e-01 4.602200e-01 0.000000e+00
8.926171e-01 5.200000e-01 0.000000e+00
9.666482e-01 4.608719e-01 0.000000e+00
9.668272e-01 5.200000e-01 0.000000e+00
9.666482e-01 4.608719e-01 0.000000e+00
9.668272e-01 5.200000e-01 0.000000e+00
1.040731e+00 4.615721e-01 0.000000e+00
1.041023e+00 5.200000e-01 0.000000e+00
1.040731e+00 4.615721e-01 0.000000e+00
1.041023e+00 5.200000e-01 0.000000e+00
1.114724e+00 4.623187e-01 0.000000e+00
1.115235e+00 5.200000e-01 0.000000e+00
1.114724e+00 4.623187e-01 0.000000e+00
1.115235e+00 5.200000e-01 0.000000e+00
1.188584e+00 4.631079e-01 0.000000e+00
1.189519e+00 5.200000e-01 0.000000e+00
1.188584e+00 4.631079e-01 0.000000e+00
1.189519e+00 5.200000e-01 0.000000e+00
1.262228e+00 4.639327e-01 0.000000e+00
1.263995e+00 5.200000e-01 0.000000e+00
1.262228e+00 4.639327e-01 0.000000e+00
1.263995e+00 5.200000e-01 0.000000e+00
1.335483e+00 4.647850e-01 0.000000e+00
1.338894e+00 5.200000e-01 0.000000e+00
1.335483e+00 4.647850e-01 0.000000e+00
1.338894e+00 5.200000e-01 0.000000e+00
1.407973e+00 4.656633e-01 0.000000e+00
1.414644e+00 5.200000e-01 0.000000e+00
1.407973e+00 4.656633e-01 0.000000e+00
1.414644e+00 5.200000e-01 0.000000e+00
1.478994e+00 4.665000e-01 0.000000e+00
1.491507e+00 5.200000e-01 0.000000e+00
1.478994e+00 4.665000e-01 0.000000e+00
1.491507e+00 5.200000e-01 0.000000e+00
1.548481e+00 4.630308e-01 0.000000e+00
1.565211e+00 5.144838e-01 0.000000e+00
1.548481e+00 4.630308e-01 0.000000e+00
1.565211e+00 5.144838e-01 0.000000e+00
1.614204e+00 4.439451e-01 0.000000e+00
1.636664e+00 4.917902e-01 0.000000e+00
1.614204e+00 4.439451e-01 0.000000e+00
1.636664e+00 4.917902e-01 0.000000e+00
1.674622e+00 4.128576e-01 0.000000e+00
1.703299e+00 4.560131e-01 0.000000e+00
1.674622e+00 4.128576e-01 0.000000e+00
1.703299e+00 4.560131e-01 0.000000e+00
1.728619e+00 3.715262e-01 0.000000e+00
1.762920e+00 4.091521e-01 0.000000e+00
1.728619e+00 3.715262e-01 0.000000e+00
1.762920e+00 4.091521e-01 0.000000e+00
1.775358e+00 3.217357e-01 0.000000e+00
1.814311e+00 3.533249e-01 0.000000e+00
1.775358e+00 3.217357e-01 0.000000e+00
1.814311e+00 3.533249e-01 0.000000e+00
1.814225e+00 2.651474e-01 0.000000e+00
1.856800e+00 2.904592e-01 0.000000e+00
1.814225e+00 2.651474e-01 0.000000e+00
1.856800e+00 2.904592e-01 0.000000e+00
1.844798e+00 2.032990e-01 0.000000e+00
1.890037e+00 2.222577e-01 0.000000e+00
1.844798e+00 2.032990e-01 0.000000e+00
1.890037e+00 2.222577e-01 0.000000e+00
1.866800e+00 1.376143e-01 0.000000e+00
1.913850e+00 1.502254e-01 0.000000e+00
1.866800e+00 1.376143e-01 0.000000e+00
1.913850e+00 1.502254e-01 0.000000e+00
1.880061e+00 6.942522e-02 0.000000e+00
1.928159e+00 7.571932e-02 0.000000e+00
1.880061e+00 6.942522e-02 0.000000e+00
1.928159e+00 7.571932e-02 0.000000e+00
1.884491e+00 9.227580e-12 0.000000e+00
1.932931e+00 9.464770e-12 0.000000e+00
</DataArray>
</Points>
<Cells>
<DataArray type="Int32" Name="connectivity" format="ascii">
0 1 3 2
4 5 7 6
8 9 11 10
12 13 15 14
16 17 19 18
20 21 23 22
24 25 27 26
28 29 31 30
32 33 35 34
36 37 39 38
40 41 43 42
44 45 47 46
48 49 51 50
52 53 55 54
56 57 59 58
60 61 63 62
64 65 67 66
68 69 71 70
72 73 75 74
76 77 79 78
80 81 83 82
84 85 87 86
88 89 91 90
92 93 95 94
96 97 99 98
100 101 103 102
104 105 107 106
108 109 111 110
112 113 115 114
116 117 119 118
</DataArray>
<DataArray type="Int32" Name="offsets" format="ascii">
4
8
12
16
20
24
28
32
36
40
44
48
52
56
60
64
68
72
76
80
84
88
92
96
100
104
108
112
116
120
</DataArray>
<DataArray type="UInt8" Name="types" format="ascii">
9
9
9
9
9
9
9
9
9
9
9
9
9
9
9
9
9
9
9
9
9
9
9
9
9
9
9
9
9
9
</DataArray>
</Cells>
<PointData>
<DataArray type="Float32" Name="V1" format="ascii">
8.194874e+02
6.478831e+01
8.205040e+02
6.580492e+01
8.214331e+02
6.510258e+01
8.241857e+02
6.785522e+01
8.261193e+02
6.646355e+01
8.307576e+02
7.110182e+01
8.336710e+02
6.899021e+01
8.402452e+02
7.556438e+01
8.441668e+02
7.271158e+01
8.527523e+02
8.129708e+01
8.577201e+02
7.767500e+01
8.684169e+02
8.837177e+01
8.744790e+02
8.394484e+01
8.874142e+02
9.688007e+01
8.946285e+02
9.160472e+01
9.099600e+02
1.069362e+02
9.183933e+02
1.007612e+02
9.363138e+02
1.186817e+02
9.460395e+02
1.115493e+02
9.667826e+02
1.322924e+02
9.778736e+02
1.241416e+02
1.001722e+03
1.479897e+02
1.014236e+03
1.387640e+02
1.041532e+03
1.660603e+02
1.055479e+03
1.557245e+02
1.086645e+03
1.868905e+02
1.101921e+03
1.754677e+02
1.137485e+03
2.110320e+02
1.153730e+03
1.986803e+02
1.194377e+03
2.393271e+02
1.210687e+03
2.265083e+02
1.257335e+03
2.731561e+02
1.271681e+03
2.610178e+02
1.325589e+03
3.149255e+02
1.333674e+03
3.062431e+02
1.396450e+03
3.690195e+02
1.389618e+03
3.707274e+02
1.462618e+03
4.437268e+02
1.421683e+03
4.759377e+02
1.508439e+03
5.626942e+02
1.407459e+03
6.755702e+02
1.523802e+03
7.919130e+02
1.472148e+03
8.118521e+02
1.562843e+03
9.025473e+02
1.566537e+03
9.004185e+02
1.655077e+03
9.889589e+02
1.676794e+03
9.734427e+02
1.760444e+03
1.057093e+03
1.788693e+03
1.035860e+03
1.864259e+03
1.111426e+03
1.892726e+03
1.089501e+03
1.957508e+03
1.154284e+03
1.982766e+03
1.134635e+03
2.034807e+03
1.186675e+03
2.054927e+03
1.170974e+03
2.092906e+03
1.208953e+03
2.106798e+03
1.198108e+03
2.129886e+03
1.221196e+03
2.136961e+03
1.215676e+03
2.144705e+03
1.223420e+03
</DataArray>
<DataArray type="Float32" Name="V2" format="ascii">
4.563933e-01
5.200000e-01
4.597075e-01
5.231851e-01
4.597075e-01
5.231851e-01
4.695829e-01
5.327205e-01
4.695829e-01
5.327205e-01
4.859739e-01
5.485469e-01
4.859739e-01
5.485469e-01
5.087782e-01
5.705656e-01
5.087782e-01
5.705656e-01
5.378532e-01
5.986390e-01
5.378532e-01
5.986390e-01
5.730169e-01
6.325913e-01
5.730169e-01
6.325913e-01
6.140486e-01
6.722093e-01
6.140486e-01
6.722093e-01
6.606897e-01
7.172436e-01
6.606897e-01
7.172436e-01
7.126451e-01
7.674094e-01
7.126451e-01
7.674094e-01
7.695842e-01
8.223883e-01
7.695842e-01
8.223883e-01
8.311427e-01
8.818304e-01
8.311427e-01
8.818304e-01
8.969232e-01
9.453560e-01
8.969232e-01
9.453560e-01
9.664962e-01
1.012560e+00
9.664962e-01
1.012560e+00
1.039400e+00
1.083016e+00
1.039400e+00
1.083016e+00
1.115137e+00
1.156285e+00
1.115137e+00
1.156285e+00
1.193170e+00
1.231933e+00
1.193170e+00
1.231933e+00
1.272898e+00
1.309556e+00
1.272898e+00
1.309556e+00
1.353622e+00
1.388836e+00
1.353622e+00
1.388836e+00
1.434444e+00
1.469632e+00
1.434444e+00
1.469632e+00
1.514096e+00
1.551683e+00
1.514096e+00
1.551683e+00
1.589918e+00
1.628184e+00
1.589918e+00
1.628184e+00
1.655218e+00
1.695196e+00
1.655218e+00
1.695196e+00
1.711350e+00
1.753587e+00
1.711350e+00
1.753587e+00
1.758822e+00
1.803072e+00
1.758822e+00
1.803072e+00
1.798135e+00
1.843937e+00
1.798135e+00
1.843937e+00
1.829707e+00
1.876614e+00
1.829707e+00
1.876614e+00
1.853888e+00
1.901536e+00
1.853888e+00
1.901536e+00
1.870958e+00
1.919068e+00
1.870958e+00
1.919068e+00
1.881118e+00
1.929479e+00
1.881118e+00
1.929479e+00
1.884491e+00
1.932931e+00
</DataArray>
<DataArray type="Float32" Name="V3" format="ascii">
0.000000e+00
0.000000e+00
5.047865e-02
4.715810e-02
5.047865e-02
4.715810e-02
1.004001e-01
9.377550e-02
1.004001e-01
9.377550e-02
1.492068e-01
1.393132e-01
1.492068e-01
1.393132e-01
1.963487e-01
1.832381e-01
1.963487e-01
1.832381e-01
2.412840e-01
2.250253e-01
2.412840e-01
2.250253e-01
2.834820e-01
2.641603e-01
2.834820e-01
2.641603e-01
3.224260e-01
3.001425e-01
3.224260e-01
3.001425e-01
3.576156e-01
3.324869e-01
3.576156e-01
3.324869e-01
3.885695e-01
3.607273e-01
3.885695e-01
3.607273e-01
4.148276e-01
3.844184e-01
4.148276e-01
3.844184e-01
4.359534e-01
4.031389e-01
4.359534e-01
4.031389e-01
4.515358e-01
4.164941e-01
4.515358e-01
4.164941e-01
4.611907e-01
4.241192e-01
4.611907e-01
4.241192e-01
4.645617e-01
4.256833e-01
4.645617e-01
4.256833e-01
4.613199e-01
4.208944e-01
4.613199e-01
4.208944e-01
4.511617e-01
4.095085e-01
4.511617e-01
4.095085e-01
4.338024e-01
3.913422e-01
4.338024e-01
3.913422e-01
4.089581e-01
3.662932e-01
4.089581e-01
3.662932e-01
3.762991e-01
3.343614e-01
3.762991e-01
3.343614e-01
3.354961e-01
2.954203e-01
3.354961e-01
2.954203e-01
2.904323e-01
2.521827e-01
2.904323e-01
2.521827e-01
2.509920e-01
2.164187e-01
2.509920e-01
2.164187e-01
2.146953e-01
1.846828e-01
2.146953e-01
1.846828e-01
1.808303e-01
1.556456e-01
1.808303e-01
1.556456e-01
1.487236e-01
1.282927e-01
1.487236e-01
1.282927e-01
1.178453e-01
1.019384e-01
1.178453e-01
1.019384e-01
8.779388e-02
7.614564e-02
8.779388e-02
7.614564e-02
5.827324e-02
5.064937e-02
5.827324e-02
5.064937e-02
2.906473e-02
2.529648e-02
2.906473e-02
2.529648e-02
0.000000e+00
0.000000e+00
</DataArray>
<DataArray type="Float32" Name="V4" format="ascii">
8.500000e-01
1.000000e+00
8.500000e-01
1.000000e+00
8.500000e-01
1.000000e+00
8.500000e-01
1.000000e+00
8.500000e-01
1.000000e+00
8.500000e-01
1.000000e+00
8.500000e-01
1.000000e+00
8.500000e-01
1.000000e+00
8.500000e-01
1.000000e+00
8.500000e-01
1.000000e+00
8.500000e-01
1.000000e+00
8.500000e-01
1.000000e+00
8.500000e-01
1.000000e+00
8.500000e-01
1.000000e+00
8.500000e-01
1.000000e+00
8.500000e-01
1.000000e+00
8.500000e-01
1.000000e+00
8.500000e-01
1.000000e+00
8.500000e-01
1.000000e+00
8.500000e-01
1.000000e+00
8.500000e-01
1.000000e+00
8.500000e-01
1.000000e+00
8.500000e-01
1.000000e+00
8.500000e-01
1.000000e+00
8.500000e-01
1.000000e+00
8.500000e-01
1.000000e+00
8.500000e-01
1.000000e+00
8.500000e-01
1.000000e+00
8.500000e-01
1.000000e+00
8.500000e-01
1.000000e+00
8.500000e-01
1.000000e+00
8.500000e-01
1.000000e+00
8.500000e-01
1.000000e+00
8.500000e-01
1.000000e+00
8.500000e-01
1.000000e+00
8.500000e-01
1.000000e+00
8.500000e-01
1.000000e+00
8.500000e-01
1.000000e+00
8.500000e-01
1.000000e+00
8.500000e-01
1.000000e+00
8.500000e-01
1.000000e+00
8.500000e-01
1.000000e+00
8.500000e-01
1.000000e+00
8.500000e-01
1.000000e+00
8.500000e-01
1.000000e+00
8.500000e-01
1.000000e+00
8.500000e-01
1.000000e+00
8.500000e-01
1.000000e+00
8.500000e-01
1.000000e+00
8.500000e-01
1.000000e+00
8.500000e-01
1.000000e+00
8.500000e-01
1.000000e+00
8.500000e-01
1.000000e+00
8.500000e-01
1.000000e+00
8.500000e-01
1.000000e+00
8.500000e-01
1.000000e+00
8.500000e-01
1.000000e+00
8.500000e-01
1.000000e+00
8.500000e-01
1.000000e+00
8.500000e-01
1.000000e+00
</DataArray>
<DataArray type="Float32" Name="V5" format="ascii">
0.000000e+00
0.000000e+00
5.235988e-02
5.235988e-02
5.235988e-02
5.235988e-02
1.047198e-01
1.047198e-01
1.047198e-01
1.047198e-01
1.570796e-01
1.570796e-01
1.570796e-01
1.570796e-01
2.094395e-01
2.094395e-01
2.094395e-01
2.094395e-01
2.617994e-01
2.617994e-01
2.617994e-01
2.617994e-01
3.141593e-01
3.141593e-01
3.141593e-01
3.141593e-01
3.665191e-01
3.665191e-01
3.665191e-01
3.665191e-01
4.188790e-01
4.188790e-01
4.188790e-01
4.188790e-01
4.712389e-01
4.712389e-01
4.712389e-01
4.712389e-01
5.235988e-01
5.235988e-01
5.235988e-01
5.235988e-01
5.759587e-01
5.759587e-01
5.759587e-01
5.759587e-01
6.283185e-01
6.283185e-01
6.283185e-01
6.283185e-01
6.806784e-01
6.806784e-01
6.806784e-01
6.806784e-01
7.330383e-01
7.330383e-01
7.330383e-01
7.330383e-01
7.853982e-01
7.853982e-01
7.853982e-01
7.853982e-01
8.377580e-01
8.377580e-01
8.377580e-01
8.377580e-01
8.901179e-01
8.901179e-01
8.901179e-01
8.901179e-01
9.424778e-01
9.424778e-01
9.424778e-01
9.424778e-01
9.948377e-01
9.948377e-01
9.948377e-01
9.948377e-01
1.047198e+00
1.047198e+00
1.047198e+00
1.047198e+00
1.099557e+00
1.099557e+00
1.099557e+00
1.099557e+00
1.151917e+00
1.151917e+00
1.151917e+00
1.151917e+00
1.204277e+00
1.204277e+00
1.204277e+00
1.204277e+00
1.256637e+00
1.256637e+00
1.256637e+00
1.256637e+00
1.308997e+00
1.308997e+00
1.308997e+00
1.308997e+00
1.361357e+00
1.361357e+00
1.361357e+00
1.361357e+00
1.413717e+00
1.413717e+00
1.413717e+00
1.413717e+00
1.466077e+00
1.466077e+00
1.466077e+00
1.466077e+00
1.518436e+00
1.518436e+00
1.518436e+00
1.518436e+00
1.570796e+00
1.570796e+00
</DataArray>
</PointData>
</Piece></UnstructuredGrid>
</VTKFile>
