<?xml version="1.0"?>
<VTKFile type="UnstructuredGrid" version="0.1" byte_order="LittleEndian" compressor="vtkZLibDataCompressor">
<UnstructuredGrid>
<Piece NumberOfPoints="120" NumberOfCells="30">
<Points>
<DataArray type="Float32" NumberOfComponents="3" format="ascii">
0.000000e+00 4.643846e-01 0.000000e+00
0.000000e+00 5.300000e-01 0.000000e+00
7.331964e-02 4.644269e-01 0.000000e+00
7.332552e-02 5.300000e-01 0.000000e+00
7.331964e-02 4.644269e-01 0.000000e+00
7.332552e-02 5.300000e-01 0.000000e+00
1.466359e-01 4.645081e-01 0.000000e+00
1.466466e-01 5.300000e-01 0.000000e+00
1.466359e-01 4.645081e-01 0.000000e+00
1.466466e-01 5.300000e-01 0.000000e+00
2.199421e-01 4.646433e-01 0.000000e+00
2.199581e-01 5.300000e-01 0.000000e+00
2.199421e-01 4.646433e-01 0.000000e+00
2.199581e-01 5.300000e-01 0.000000e+00
2.932338e-01 4.648326e-01 0.000000e+00
2.932550e-01 5.300000e-01 0.000000e+00
2.932338e-01 4.648326e-01 0.000000e+00
2.932550e-01 5.300000e-01 0.000000e+00
3.665059e-01 4.650757e-01 0.000000e+00
3.665326e-01 5.300000e-01 0.000000e+00
3.665059e-01 4.650757e-01 0.000000e+00
3.665326e-01 5.300000e-01 0.000000e+00
4.397537e-01 4.653722e-01 0.000000e+00
4.397862e-01 5.300000e-01 0.000000e+00
4.397537e-01 4.653722e-01 0.000000e+00
4.397862e-01 5.300000e-01 0.000000e+00
5.129723e-01 4.657218e-01 0.000000e+00
5.130112e-01 5.300000e-01 0.000000e+00
5.129723e-01 4.657218e-01 0.000000e+00
5.130112e-01 5.300000e-01 0.000000e+00
5.861566e-01 4.661242e-01 0.000000e+00
5.862032e-01 5.300000e-01 0.000000e+00
5.861566e-01 4.661242e-01 0.000000e+00
5.862032e-01 5.300000e-01 0.000000e+00
6.593016e-01 4.665789e-01 0.000000e+00
6.593585e-01 5.300000e-01 0.000000e+00
6.593016e-01 4.665789e-01 0.000000e+00
6.593585e-01 5.300000e-01 0.000000e+00
7.324017e-01 4.670855e-01 0.000000e+00
7.324738e-01 5.300000e-01 0.000000e+00
7.324017e-01 4.670855e-01 0.000000e+00
7.324738e-01 5.300000e-01 0.000000e+00
8.054506e-01 4.676435e-01 0.000000e+00
8.055479e-01 5.300000e-01 0.000000e+00
8.054506e-01 4.676435e-01 0.000000e+00
8.055479e-01 5.300000e-01 0.000000e+00
8.784405e-01 4.682524e-01 0.000000e+00
8.785822e-01 5.300000e-01 0.000000e+00
8.784405e-01 4.682524e-01 0.000000e+00
8.785822e-01 5.300000e-01 0.000000e+00
9.513603e-01 4.689114e-01 0.000000e+00
9.515837e-01 5.300000e-01 0.000000e+00
9.513603e-01 4.689114e-01 0.000000e+00
9.515837e-01 5.300000e-01 0.000000e+00
1.024192e+00 4.696195e-01 0.000000e+00
1.024570e+00 5.300000e-01 0.000000e+00
1.024192e+00 4.696195e-01 0.000000e+00
1.024570e+00 5.300000e-01 0.000000e+00
1.096906e+00 4.703745e-01 0.000000e+00
1.097579e+00 5.300000e-01 0.000000e+00
1.096906e+00 4.703745e-01 0.000000e+00
1.097579e+00 5.300000e-01 0.000000e+00
1.169444e+00 4.711722e-01 0.000000e+00
1.170687e+00 5.300000e-01 0.000000e+00
1.169444e+00 4.711722e-01 0.000000e+00
1.170687e+00 5.300000e-01 0.000000e+00
1.241693e+00 4.720054e-01 0.000000e+00
1.244048e+00 5.300000e-01 0.000000e+00
1.241693e+00 4.720054e-01 0.000000e+00
1.244048e+00 5.300000e-01 0.000000e+00
1.313418e+00 4.728622e-01 0.000000e+00
1.317957e+00 5.300000e-01 0.000000e+00
1.313418e+00 4.728622e-01 0.000000e+00
1.317957e+00 5.300000e-01 0.000000e+00
1.384085e+00 4.737024e-01 0.000000e+00
1.392919e+00 5.300000e-01 0.000000e+00
1.384085e+00 4.737024e-01 0.000000e+00
1.392919e+00 5.300000e-01 0.000000e+00
1.453179e+00 4.742817e-01 0.000000e+00
1.467696e+00 5.300000e-01 0.000000e+00
1.453179e+00 4.742817e-01 0.000000e+00
1.467696e+00 5.300000e-01 0.000000e+00
1.520394e+00 4.654160e-01 0.000000e+00
1.539535e+00 5.180464e-01 0.000000e+00
1.520394e+00 4.654160e-01 0.000000e+00
1.539535e+00 5.180464e-01 0.000000e+00
1.583313e+00 4.431068e-01 0.000000e+00
1.608608e+00 4.917554e-01 0.000000e+00
1.583313e+00 4.431068e-01 0.000000e+00
1.608608e+00 4.917554e-01 0.000000e+00
1.640827e+00 4.098041e-01 0.000000e+00
1.672350e+00 4.534446e-01 0.000000e+00
1.640827e+00 4.098041e-01 0.000000e+00
1.672350e+00 4.534446e-01 0.000000e+00
1.692020e+00 3.672181e-01 0.000000e+00
1.729033e+00 4.051129e-01 0.000000e+00
1.692020e+00 3.672181e-01 0.000000e+00
1.729033e+00 4.051129e-01 0.000000e+00
1.736194e+00 3.169779e-01 0.000000e+00
1.777697e+00 3.487091e-01 0.000000e+00
1.736194e+00 3.169779e-01 0.000000e+00
1.777697e+00 3.487091e-01 0.000000e+00
1.772846e+00 2.605932e-01 0.000000e+00
1.817828e+00 2.859786e-01 0.000000e+00
1.772846e+00 2.605932e-01 0.000000e+00
1.817828e+00 2.859786e-01 0.000000e+00
1.801631e+00 1.994555e-01 0.000000e+00
1.849169e+00 2.184525e-01 0.000000e+00
1.801631e+00 1.994555e-01 0.000000e+00
1.849169e+00 2.184525e-01 0.000000e+00
1.822324e+00 1.348516e-01 0.000000e+00
1.871601e+00 1.474823e-01 0.000000e+00
1.822324e+00 1.348516e-01 0.000000e+00
1.871601e+00 1.474823e-01 0.000000e+00
1.834789e+00 6.798440e-02 0.000000e+00
1.885071e+00 7.428704e-02 0.000000e+00
1.834789e+00 6.798440e-02 0.000000e+00
1.885071e+00 7.428704e-02 0.000000e+00
1.838952e+00 9.004590e-12 0.000000e+00
1.889563e+00 9.252410e-12 0.000000e+00
</DataArray>
</Points>
<Cells>
<DataArray type="Int32" Name="connectivity" format="ascii">
0 1 3 2
4 5 7 6
8 9 11 10
12 13 15 14
16 17 19 18
20 21 23 22
24 25 27 26
28 29 31 30
32 33 35 34
36 37 39 38
40 41 43 42
44 45 47 46
48 49 51 50
52 53 55 54
56 57 59 58
60 61 63 62
64 65 67 66
68 69 71 70
72 73 75 74
76 77 79 78
80 81 83 82
84 85 87 86
88 89 91 90
92 93 95 94
96 97 99 98
100 101 103 102
104 105 107 106
108 109 111 110
112 113 115 114
116 117 119 118
</DataArray>
<DataArray type="Int32" Name="offsets" format="ascii">
4
8
12
16
20
24
28
32
36
40
44
48
52
56
60
64
68
72
76
80
84
88
92
96
100
104
108
112
116
120
</DataArray>
<DataArray type="UInt8" Name="types" format="ascii">
9
9
9
9
9
9
9
9
9
9
9
9
9
9
9
9
9
9
9
9
9
9
9
9
9
9
9
9
9
9
</DataArray>
</Cells>
<PointData>
<DataArray type="Float32" Name="V1" format="ascii">
7.404760e+02
4.480346e+01
7.413911e+02
4.571848e+01
7.422474e+02
4.507785e+01
7.447268e+02
4.755722e+01
7.465063e+02
4.628273e+01
7.506870e+02
5.046336e+01
7.533662e+02
4.852814e+01
7.592936e+02
5.445550e+01
7.628983e+02
5.184048e+01
7.706406e+02
5.958270e+01
7.752053e+02
5.626272e+01
7.848529e+02
6.591039e+01
7.904206e+02
6.185362e+01
8.020892e+02
7.352221e+01
8.087108e+02
6.869012e+01
8.225437e+02
8.252301e+01
8.302771e+02
7.687095e+01
8.464498e+02
9.304364e+01
8.553553e+02
8.652283e+01
8.740809e+02
1.052485e+02
8.842127e+02
9.781076e+01
9.057501e+02
1.193482e+02
9.171368e+02
1.109565e+02
9.418023e+02
1.356220e+02
9.544066e+02
1.262725e+02
9.825921e+02
1.544580e+02
9.962272e+02
1.442271e+02
1.028431e+03
1.764307e+02
1.042589e+03
1.655744e+02
1.079465e+03
2.024510e+02
1.092967e+03
1.916203e+02
1.135410e+03
2.340626e+02
1.145708e+03
2.247970e+02
1.194940e+03
2.740292e+02
1.196768e+03
2.699682e+02
1.254303e+03
3.275031e+02
1.237172e+03
3.375017e+02
1.304324e+03
4.046537e+02
1.236922e+03
4.613989e+02
1.331424e+03
5.559008e+02
1.249371e+03
6.359501e+02
1.334300e+03
7.208784e+02
1.307916e+03
7.349215e+02
1.386028e+03
8.130337e+02
1.393399e+03
8.081801e+02
1.468965e+03
8.837457e+02
1.489501e+03
8.687036e+02
1.560200e+03
9.394025e+02
1.585055e+03
9.204171e+02
1.648343e+03
9.837051e+02
1.672788e+03
9.646919e+02
1.726655e+03
1.018559e+03
1.748093e+03
1.001781e+03
1.791136e+03
1.044824e+03
1.808101e+03
1.031533e+03
1.839398e+03
1.062829e+03
1.851066e+03
1.053696e+03
1.870047e+03
1.072677e+03
1.875977e+03
1.068040e+03
1.882336e+03
1.074399e+03
</DataArray>
<DataArray type="Float32" Name="V2" format="ascii">
4.643846e-01
5.300000e-01
4.676277e-01
5.331112e-01
4.676277e-01
5.331112e-01
4.772911e-01
5.424254e-01
4.772911e-01
5.424254e-01
4.933293e-01
5.578838e-01
4.933293e-01
5.578838e-01
5.156416e-01
5.793894e-01
5.156416e-01
5.793894e-01
5.440873e-01
6.068063e-01
5.440873e-01
6.068063e-01
5.784866e-01
6.399614e-01
5.784866e-01
6.399614e-01
6.186216e-01
6.786444e-01
6.186216e-01
6.786444e-01
6.642370e-01
7.226094e-01
6.642370e-01
7.226094e-01
7.150415e-01
7.715759e-01
7.150415e-01
7.715759e-01
7.707087e-01
8.252304e-01
7.707087e-01
8.252304e-01
8.308787e-01
8.832282e-01
8.308787e-01
8.832282e-01
8.951585e-01
9.451967e-01
8.951585e-01
9.451967e-01
9.631231e-01
1.010738e+00
9.631231e-01
1.010738e+00
1.034314e+00
1.079438e+00
1.034314e+00
1.079438e+00
1.108235e+00
1.150872e+00
1.108235e+00
1.150872e+00
1.184342e+00
1.224629e+00
1.184342e+00
1.224629e+00
1.262020e+00
1.300347e+00
1.262020e+00
1.300347e+00
1.340519e+00
1.377776e+00
1.340519e+00
1.377776e+00
1.418788e+00
1.456859e+00
1.418788e+00
1.456859e+00
1.495631e+00
1.536062e+00
1.495631e+00
1.536062e+00
1.565976e+00
1.606924e+00
1.565976e+00
1.606924e+00
1.626656e+00
1.669552e+00
1.626656e+00
1.669552e+00
1.678705e+00
1.723773e+00
1.678705e+00
1.723773e+00
1.722683e+00
1.769595e+00
1.722683e+00
1.769595e+00
1.759075e+00
1.807376e+00
1.759075e+00
1.807376e+00
1.788286e+00
1.837563e+00
1.788286e+00
1.837563e+00
1.810652e+00
1.860577e+00
1.810652e+00
1.860577e+00
1.826437e+00
1.876764e+00
1.826437e+00
1.876764e+00
1.835833e+00
1.886376e+00
1.835833e+00
1.886376e+00
1.838952e+00
1.889563e+00
</DataArray>
<DataArray type="Float32" Name="V3" format="ascii">
0.000000e+00
0.000000e+00
4.891293e-02
4.548697e-02
4.891293e-02
4.548697e-02
9.727828e-02
9.044319e-02
9.727828e-02
9.044319e-02
1.445481e-01
1.343398e-01
1.445481e-01
1.343398e-01
1.901818e-01
1.766535e-01
1.901818e-01
1.766535e-01
2.336471e-01
2.168692e-01
2.336471e-01
2.168692e-01
2.744227e-01
2.544825e-01
2.744227e-01
2.544825e-01
3.120011e-01
2.890022e-01
3.120011e-01
2.890022e-01
3.458909e-01
3.199529e-01
3.458909e-01
3.199529e-01
3.756196e-01
3.468777e-01
3.756196e-01
3.468777e-01
4.007357e-01
3.693410e-01
4.007357e-01
3.693410e-01
4.208108e-01
3.869306e-01
4.208108e-01
3.869306e-01
4.354414e-01
3.992617e-01
4.354414e-01
3.992617e-01
4.442503e-01
4.059796e-01
4.442503e-01
4.059796e-01
4.468866e-01
4.067646e-01
4.468866e-01
4.067646e-01
4.430250e-01
4.013387e-01
4.430250e-01
4.013387e-01
4.323619e-01
3.894757e-01
4.323619e-01
3.894757e-01
4.146058e-01
3.710176e-01
4.146058e-01
3.710176e-01
3.894541e-01
3.458969e-01
3.894541e-01
3.458969e-01
3.565466e-01
3.141425e-01
3.565466e-01
3.141425e-01
3.158497e-01
2.748543e-01
3.158497e-01
2.748543e-01
2.755560e-01
2.373517e-01
2.755560e-01
2.373517e-01
2.391932e-01
2.050390e-01
2.391932e-01
2.050390e-01
2.054347e-01
1.759895e-01
2.054347e-01
1.759895e-01
1.736177e-01
1.490153e-01
1.736177e-01
1.490153e-01
1.431830e-01
1.232746e-01
1.431830e-01
1.232746e-01
1.136969e-01
9.821844e-02
1.136969e-01
9.821844e-02
8.483729e-02
7.351085e-02
8.483729e-02
7.351085e-02
5.637192e-02
4.896114e-02
5.637192e-02
4.896114e-02
2.813421e-02
2.447179e-02
2.813421e-02
2.447179e-02
0.000000e+00
0.000000e+00
</DataArray>
<DataArray type="Float32" Name="V4" format="ascii">
8.500000e-01
1.000000e+00
8.500000e-01
1.000000e+00
8.500000e-01
1.000000e+00
8.500000e-01
1.000000e+00
8.500000e-01
1.000000e+00
8.500000e-01
1.000000e+00
8.500000e-01
1.000000e+00
8.500000e-01
1.000000e+00
8.500000e-01
1.000000e+00
8.500000e-01
1.000000e+00
8.500000e-01
1.000000e+00
8.500000e-01
1.000000e+00
8.500000e-01
1.000000e+00
8.500000e-01
1.000000e+00
8.500000e-01
1.000000e+00
8.500000e-01
1.000000e+00
8.500000e-01
1.000000e+00
8.500000e-01
1.000000e+00
8.500000e-01
1.000000e+00
8.500000e-01
1.000000e+00
8.500000e-01
1.000000e+00
8.500000e-01
1.000000e+00
8.500000e-01
1.000000e+00
8.500000e-01
1.000000e+00
8.500000e-01
1.000000e+00
8.500000e-01
1.000000e+00
8.500000e-01
1.000000e+00
8.500000e-01
1.000000e+00
8.500000e-01
1.000000e+00
8.500000e-01
1.000000e+00
8.500000e-01
1.000000e+00
8.500000e-01
1.000000e+00
8.500000e-01
1.000000e+00
8.500000e-01
1.000000e+00
8.500000e-01
1.000000e+00
8.500000e-01
1.000000e+00
8.500000e-01
1.000000e+00
8.500000e-01
1.000000e+00
8.500000e-01
1.000000e+00
8.500000e-01
1.000000e+00
8.500000e-01
1.000000e+00
8.500000e-01
1.000000e+00
8.500000e-01
1.000000e+00
8.500000e-01
1.000000e+00
8.500000e-01
1.000000e+00
8.500000e-01
1.000000e+00
8.500000e-01
1.000000e+00
8.500000e-01
1.000000e+00
8.500000e-01
1.000000e+00
8.500000e-01
1.000000e+00
8.500000e-01
1.000000e+00
8.500000e-01
1.000000e+00
8.500000e-01
1.000000e+00
8.500000e-01
1.000000e+00
8.500000e-01
1.000000e+00
8.500000e-01
1.000000e+00
8.500000e-01
1.000000e+00
8.500000e-01
1.000000e+00
8.500000e-01
1.000000e+00
8.500000e-01
1.000000e+00
</DataArray>
<DataArray type="Float32" Name="V5" format="ascii">
0.000000e+00
0.000000e+00
5.235988e-02
5.235988e-02
5.235988e-02
5.235988e-02
1.047198e-01
1.047198e-01
1.047198e-01
1.047198e-01
1.570796e-01
1.570796e-01
1.570796e-01
1.570796e-01
2.094395e-01
2.094395e-01
2.094395e-01
2.094395e-01
2.617994e-01
2.617994e-01
2.617994e-01
2.617994e-01
3.141593e-01
3.141593e-01
3.141593e-01
3.141593e-01
3.665191e-01
3.665191e-01
3.665191e-01
3.665191e-01
4.188790e-01
4.188790e-01
4.188790e-01
4.188790e-01
4.712389e-01
4.712389e-01
4.712389e-01
4.712389e-01
5.235988e-01
5.235988e-01
5.235988e-01
5.235988e-01
5.759587e-01
5.759587e-01
5.759587e-01
5.759587e-01
6.283185e-01
6.283185e-01
6.283185e-01
6.283185e-01
6.806784e-01
6.806784e-01
6.806784e-01
6.806784e-01
7.330383e-01
7.330383e-01
7.330383e-01
7.330383e-01
7.853982e-01
7.853982e-01
7.853982e-01
7.853982e-01
8.377580e-01
8.377580e-01
8.377580e-01
8.377580e-01
8.901179e-01
8.901179e-01
8.901179e-01
8.901179e-01
9.424778e-01
9.424778e-01
9.424778e-01
9.424778e-01
9.948377e-01
9.948377e-01
9.948377e-01
9.948377e-01
1.047198e+00
1.047198e+00
1.047198e+00
1.047198e+00
1.099557e+00
1.099557e+00
1.099557e+00
1.099557e+00
1.151917e+00
1.151917e+00
1.151917e+00
1.151917e+00
1.204277e+00
1.204277e+00
1.204277e+00
1.204277e+00
1.256637e+00
1.256637e+00
1.256637e+00
1.256637e+00
1.308997e+00
1.308997e+00
1.308997e+00
1.308997e+00
1.361357e+00
1.361357e+00
1.361357e+00
1.361357e+00
1.413717e+00
1.413717e+00
1.413717e+00
1.413717e+00
1.466077e+00
1.466077e+00
1.466077e+00
1.466077e+00
1.518436e+00
1.518436e+00
1.518436e+00
1.518436e+00
1.570796e+00
1.570796e+00
</DataArray>
</PointData>
</Piece></UnstructuredGrid>
</VTKFile>
