<?xml version="1.0"?>
<VTKFile type="UnstructuredGrid" version="0.1" byte_order="LittleEndian" compressor="vtkZLibDataCompressor">
<UnstructuredGrid>
<Piece NumberOfPoints="120" NumberOfCells="30">
<Points>
<DataArray type="Float32" NumberOfComponents="3" format="ascii">
0.000000e+00 6.003310e-01 0.000000e+00
0.000000e+00 6.900000e-01 0.000000e+00
6.272057e-02 6.003741e-01 0.000000e+00
6.272214e-02 6.900000e-01 0.000000e+00
6.272057e-02 6.003741e-01 0.000000e+00
6.272214e-02 6.900000e-01 0.000000e+00
1.254291e-01 6.004614e-01 0.000000e+00
1.254326e-01 6.900000e-01 0.000000e+00
1.254291e-01 6.004614e-01 0.000000e+00
1.254326e-01 6.900000e-01 0.000000e+00
1.881109e-01 6.006072e-01 0.000000e+00
1.881207e-01 6.900000e-01 0.000000e+00
1.881109e-01 6.006072e-01 0.000000e+00
1.881207e-01 6.900000e-01 0.000000e+00
2.507522e-01 6.008115e-01 0.000000e+00
2.507759e-01 6.900000e-01 0.000000e+00
2.507522e-01 6.008115e-01 0.000000e+00
2.507759e-01 6.900000e-01 0.000000e+00
3.133384e-01 6.010741e-01 0.000000e+00
3.133891e-01 6.900000e-01 0.000000e+00
3.133384e-01 6.010741e-01 0.000000e+00
3.133891e-01 6.900000e-01 0.000000e+00
3.758533e-01 6.013954e-01 0.000000e+00
3.759539e-01 6.900000e-01 0.000000e+00
3.758533e-01 6.013954e-01 0.000000e+00
3.759539e-01 6.900000e-01 0.000000e+00
4.382778e-01 6.017762e-01 0.000000e+00
4.384686e-01 6.900000e-01 0.000000e+00
4.382778e-01 6.017762e-01 0.000000e+00
4.384686e-01 6.900000e-01 0.000000e+00
5.005880e-01 6.022183e-01 0.000000e+00
5.009407e-01 6.900000e-01 0.000000e+00
5.005880e-01 6.022183e-01 0.000000e+00
5.009407e-01 6.900000e-01 0.000000e+00
5.627509e-01 6.027247e-01 0.000000e+00
5.633932e-01 6.900000e-01 0.000000e+00
5.627509e-01 6.027247e-01 0.000000e+00
5.633932e-01 6.900000e-01 0.000000e+00
6.247166e-01 6.033004e-01 0.000000e+00
6.258771e-01 6.900000e-01 0.000000e+00
6.247166e-01 6.033004e-01 0.000000e+00
6.258771e-01 6.900000e-01 0.000000e+00
6.864023e-01 6.039513e-01 0.000000e+00
6.884897e-01 6.900000e-01 0.000000e+00
6.864023e-01 6.039513e-01 0.000000e+00
6.884897e-01 6.900000e-01 0.000000e+00
7.476599e-01 6.046780e-01 0.000000e+00
7.514005e-01 6.900000e-01 0.000000e+00
7.476599e-01 6.046780e-01 0.000000e+00
7.514005e-01 6.900000e-01 0.000000e+00
8.082103e-01 6.054430e-01 0.000000e+00
8.148639e-01 6.900000e-01 0.000000e+00
8.082103e-01 6.054430e-01 0.000000e+00
8.148639e-01 6.900000e-01 0.000000e+00
8.675208e-01 6.059867e-01 0.000000e+00
8.791289e-01 6.900000e-01 0.000000e+00
8.675208e-01 6.059867e-01 0.000000e+00
8.791289e-01 6.900000e-01 0.000000e+00
9.253339e-01 6.059473e-01 0.000000e+00
9.430362e-01 6.898426e-01 0.000000e+00
9.253339e-01 6.059473e-01 0.000000e+00
9.430362e-01 6.898426e-01 0.000000e+00
9.815075e-01 5.994105e-01 0.000000e+00
1.005213e+00 6.807928e-01 0.000000e+00
9.815075e-01 5.994105e-01 0.000000e+00
1.005213e+00 6.807928e-01 0.000000e+00
1.034913e+00 5.850666e-01 0.000000e+00
1.066185e+00 6.627564e-01 0.000000e+00
1.034913e+00 5.850666e-01 0.000000e+00
1.066185e+00 6.627564e-01 0.000000e+00
1.085428e+00 5.635193e-01 0.000000e+00
1.124528e+00 6.366114e-01 0.000000e+00
1.085428e+00 5.635193e-01 0.000000e+00
1.124528e+00 6.366114e-01 0.000000e+00
1.132724e+00 5.356649e-01 0.000000e+00
1.179174e+00 6.034153e-01 0.000000e+00
1.132724e+00 5.356649e-01 0.000000e+00
1.179174e+00 6.034153e-01 0.000000e+00
1.176503e+00 5.023011e-01 0.000000e+00
1.229493e+00 5.642003e-01 0.000000e+00
1.176503e+00 5.023011e-01 0.000000e+00
1.229493e+00 5.642003e-01 0.000000e+00
1.216534e+00 4.641694e-01 0.000000e+00
1.275158e+00 5.199188e-01 0.000000e+00
1.216534e+00 4.641694e-01 0.000000e+00
1.275158e+00 5.199188e-01 0.000000e+00
1.252639e+00 4.219432e-01 0.000000e+00
1.316018e+00 4.714010e-01 0.000000e+00
1.252639e+00 4.219432e-01 0.000000e+00
1.316018e+00 4.714010e-01 0.000000e+00
1.284689e+00 3.762332e-01 0.000000e+00
1.352017e+00 4.193601e-01 0.000000e+00
1.284689e+00 3.762332e-01 0.000000e+00
1.352017e+00 4.193601e-01 0.000000e+00
1.312591e+00 3.275930e-01 0.000000e+00
1.383150e+00 3.644093e-01 0.000000e+00
1.312591e+00 3.275930e-01 0.000000e+00
1.383150e+00 3.644093e-01 0.000000e+00
1.336279e+00 2.765265e-01 0.000000e+00
1.409436e+00 3.070820e-01 0.000000e+00
1.336279e+00 2.765265e-01 0.000000e+00
1.409436e+00 3.070820e-01 0.000000e+00
1.355709e+00 2.234966e-01 0.000000e+00
1.430899e+00 2.478507e-01 0.000000e+00
1.355709e+00 2.234966e-01 0.000000e+00
1.430899e+00 2.478507e-01 0.000000e+00
1.370847e+00 1.689330e-01 0.000000e+00
1.447565e+00 1.871426e-01 0.000000e+00
1.370847e+00 1.689330e-01 0.000000e+00
1.447565e+00 1.871426e-01 0.000000e+00
1.381674e+00 1.132402e-01 0.000000e+00
1.459453e+00 1.253523e-01 0.000000e+00
1.381674e+00 1.132402e-01 0.000000e+00
1.459453e+00 1.253523e-01 0.000000e+00
1.388175e+00 5.680438e-02 0.000000e+00
1.466580e+00 6.285196e-02 0.000000e+00
1.388175e+00 5.680438e-02 0.000000e+00
1.466580e+00 6.285196e-02 0.000000e+00
1.390343e+00 6.807940e-12 0.000000e+00
1.468954e+00 7.192860e-12 0.000000e+00
</DataArray>
</Points>
<Cells>
<DataArray type="Int32" Name="connectivity" format="ascii">
0 1 3 2
4 5 7 6
8 9 11 10
12 13 15 14
16 17 19 18
20 21 23 22
24 25 27 26
28 29 31 30
32 33 35 34
36 37 39 38
40 41 43 42
44 45 47 46
48 49 51 50
52 53 55 54
56 57 59 58
60 61 63 62
64 65 67 66
68 69 71 70
72 73 75 74
76 77 79 78
80 81 83 82
84 85 87 86
88 89 91 90
92 93 95 94
96 97 99 98
100 101 103 102
104 105 107 106
108 109 111 110
112 113 115 114
116 117 119 118
</DataArray>
<DataArray type="Int32" Name="offsets" format="ascii">
4
8
12
16
20
24
28
32
36
40
44
48
52
56
60
64
68
72
76
80
84
88
92
96
100
104
108
112
116
120
</DataArray>
<DataArray type="UInt8" Name="types" format="ascii">
9
9
9
9
9
9
9
9
9
9
9
9
9
9
9
9
9
9
9
9
9
9
9
9
9
9
9
9
9
9
</DataArray>
</Cells>
<PointData>
<DataArray type="Float32" Name="V1" format="ascii">
2.360110e+02
-3.679281e+01
2.362744e+02
-3.652937e+01
2.366291e+02
-3.676106e+01
2.373521e+02
-3.603802e+01
2.380738e+02
-3.651673e+01
2.393049e+02
-3.528572e+01
2.403743e+02
-3.601130e+01
2.421284e+02
-3.425715e+01
2.435395e+02
-3.522534e+01
2.458405e+02
-3.292432e+01
2.475755e+02
-3.412439e+01
2.504571e+02
-3.124280e+01
2.524755e+02
-3.265069e+01
2.559837e+02
-2.914251e+01
2.582003e+02
-3.070720e+01
2.623977e+02
-2.650985e+01
2.646414e+02
-2.812690e+01
2.696145e+02
-2.315382e+01
2.715514e+02
-2.461370e+01
2.774231e+02
-1.874197e+01
2.784134e+02
-1.962629e+01
2.853618e+02
-1.267787e+01
2.842017e+02
-1.214441e+01
2.924863e+02
-3.859777e+00
2.869549e+02
-1.870678e-01
2.969886e+02
9.846645e+00
2.830186e+02
2.010209e+01
2.960654e+02
3.314884e+01
2.647964e+02
6.055031e+01
2.852874e+02
8.104129e+01
2.516684e+02
1.119333e+02
2.672727e+02
1.275376e+02
2.521051e+02
1.371102e+02
2.647694e+02
1.497744e+02
2.601314e+02
1.535297e+02
2.723531e+02
1.657514e+02
2.730234e+02
1.653498e+02
2.847369e+02
1.770633e+02
2.880731e+02
1.743555e+02
2.989711e+02
1.852534e+02
3.035367e+02
1.814793e+02
3.134120e+02
1.913546e+02
3.183587e+02
1.872737e+02
3.271112e+02
1.960263e+02
3.319451e+02
1.920719e+02
3.395494e+02
1.996762e+02
3.439891e+02
1.960806e+02
3.504621e+02
2.025535e+02
3.543560e+02
1.994304e+02
3.597345e+02
2.048089e+02
3.630077e+02
2.022058e+02
3.673352e+02
2.065333e+02
3.699564e+02
2.044631e+02
3.732742e+02
2.077810e+02
3.752354e+02
2.062404e+02
3.775788e+02
2.085838e+02
3.788819e+02
2.075640e+02
3.802771e+02
2.089592e+02
3.809270e+02
2.084518e+02
3.813903e+02
2.089150e+02
</DataArray>
<DataArray type="Float32" Name="V2" format="ascii">
6.003310e-01
6.900000e-01
6.028338e-01
6.923370e-01
6.028338e-01
6.923370e-01
6.102829e-01
6.993314e-01
6.102829e-01
6.993314e-01
6.226398e-01
7.109335e-01
6.226398e-01
7.109335e-01
6.398166e-01
7.270611e-01
6.398166e-01
7.270611e-01
6.616909e-01
7.475999e-01
6.616909e-01
7.475999e-01
6.881060e-01
7.724051e-01
6.881060e-01
7.724051e-01
7.188712e-01
8.013036e-01
7.188712e-01
8.013036e-01
7.537612e-01
8.340973e-01
7.537612e-01
8.340973e-01
7.925152e-01
8.705697e-01
7.925152e-01
8.705697e-01
8.348318e-01
9.104961e-01
8.348318e-01
9.104961e-01
8.803577e-01
9.536611e-01
8.803577e-01
9.536611e-01
9.286582e-01
9.998838e-01
9.286582e-01
9.998838e-01
9.791408e-01
1.049041e+00
9.791408e-01
1.049041e+00
1.030821e+00
1.101022e+00
1.030821e+00
1.101022e+00
1.082779e+00
1.154620e+00
1.082779e+00
1.154620e+00
1.130486e+00
1.202558e+00
1.130486e+00
1.202558e+00
1.172473e+00
1.245668e+00
1.172473e+00
1.245668e+00
1.209358e+00
1.283953e+00
1.209358e+00
1.283953e+00
1.241726e+00
1.317582e+00
1.241726e+00
1.317582e+00
1.270032e+00
1.346873e+00
1.270032e+00
1.346873e+00
1.294668e+00
1.372213e+00
1.294668e+00
1.372213e+00
1.315962e+00
1.393978e+00
1.315962e+00
1.393978e+00
1.334190e+00
1.412502e+00
1.334190e+00
1.412502e+00
1.349580e+00
1.428063e+00
1.349580e+00
1.428063e+00
1.362317e+00
1.440890e+00
1.362317e+00
1.440890e+00
1.372551e+00
1.451162e+00
1.372551e+00
1.451162e+00
1.380397e+00
1.459018e+00
1.380397e+00
1.459018e+00
1.385942e+00
1.464561e+00
1.385942e+00
1.464561e+00
1.389246e+00
1.467859e+00
1.389246e+00
1.467859e+00
1.390343e+00
1.468954e+00
</DataArray>
<DataArray type="Float32" Name="V3" format="ascii">
0.000000e+00
0.000000e+00
3.121347e-02
2.652437e-02
3.121347e-02
2.652437e-02
6.197667e-02
5.262079e-02
6.197667e-02
5.262079e-02
9.183922e-02
7.786486e-02
9.183922e-02
7.786486e-02
1.203569e-01
1.018368e-01
1.203569e-01
1.018368e-01
1.470923e-01
1.241255e-01
1.470923e-01
1.241255e-01
1.716164e-01
1.443316e-01
1.716164e-01
1.443316e-01
1.935103e-01
1.620719e-01
1.935103e-01
1.620719e-01
2.123657e-01
1.769838e-01
2.123657e-01
1.769838e-01
2.277835e-01
1.887336e-01
2.277835e-01
1.887336e-01
2.393703e-01
1.970254e-01
2.393703e-01
1.970254e-01
2.467299e-01
2.016151e-01
2.467299e-01
2.016151e-01
2.494488e-01
2.023239e-01
2.494488e-01
2.023239e-01
2.470797e-01
1.990372e-01
2.470797e-01
1.990372e-01
2.392093e-01
1.916200e-01
2.392093e-01
1.916200e-01
2.258404e-01
1.790349e-01
2.258404e-01
1.790349e-01
2.113079e-01
1.666911e-01
2.113079e-01
1.666911e-01
1.966095e-01
1.559138e-01
1.966095e-01
1.559138e-01
1.821018e-01
1.459517e-01
1.821018e-01
1.459517e-01
1.676792e-01
1.361577e-01
1.676792e-01
1.361577e-01
1.532461e-01
1.261348e-01
1.532461e-01
1.261348e-01
1.387168e-01
1.156587e-01
1.387168e-01
1.156587e-01
1.240298e-01
1.046264e-01
1.240298e-01
1.046264e-01
1.091472e-01
9.301307e-02
1.091472e-01
9.301307e-02
9.405332e-02
8.084315e-02
9.405332e-02
8.084315e-02
7.875040e-02
6.817051e-02
7.875040e-02
6.817051e-02
6.325506e-02
5.506612e-02
6.325506e-02
5.506612e-02
4.759467e-02
4.161043e-02
4.759467e-02
4.161043e-02
3.180446e-02
2.788880e-02
3.180446e-02
2.788880e-02
1.592495e-02
1.398903e-02
1.592495e-02
1.398903e-02
0.000000e+00
0.000000e+00
</DataArray>
<DataArray type="Float32" Name="V4" format="ascii">
8.500000e-01
1.000000e+00
8.500000e-01
1.000000e+00
8.500000e-01
1.000000e+00
8.500000e-01
1.000000e+00
8.500000e-01
1.000000e+00
8.500000e-01
1.000000e+00
8.500000e-01
1.000000e+00
8.500000e-01
1.000000e+00
8.500000e-01
1.000000e+00
8.500000e-01
1.000000e+00
8.500000e-01
1.000000e+00
8.500000e-01
1.000000e+00
8.500000e-01
1.000000e+00
8.500000e-01
1.000000e+00
8.500000e-01
1.000000e+00
8.500000e-01
1.000000e+00
8.500000e-01
1.000000e+00
8.500000e-01
1.000000e+00
8.500000e-01
1.000000e+00
8.500000e-01
1.000000e+00
8.500000e-01
1.000000e+00
8.500000e-01
1.000000e+00
8.500000e-01
1.000000e+00
8.500000e-01
1.000000e+00
8.500000e-01
1.000000e+00
8.500000e-01
1.000000e+00
8.500000e-01
1.000000e+00
8.500000e-01
1.000000e+00
8.500000e-01
1.000000e+00
8.500000e-01
1.000000e+00
8.500000e-01
1.000000e+00
8.500000e-01
1.000000e+00
8.500000e-01
1.000000e+00
8.500000e-01
1.000000e+00
8.500000e-01
1.000000e+00
8.500000e-01
1.000000e+00
8.500000e-01
1.000000e+00
8.500000e-01
1.000000e+00
8.500000e-01
1.000000e+00
8.500000e-01
1.000000e+00
8.500000e-01
1.000000e+00
8.500000e-01
1.000000e+00
8.500000e-01
1.000000e+00
8.500000e-01
1.000000e+00
8.500000e-01
1.000000e+00
8.500000e-01
1.000000e+00
8.500000e-01
1.000000e+00
8.500000e-01
1.000000e+00
8.500000e-01
1.000000e+00
8.500000e-01
1.000000e+00
8.500000e-01
1.000000e+00
8.500000e-01
1.000000e+00
8.500000e-01
1.000000e+00
8.500000e-01
1.000000e+00
8.500000e-01
1.000000e+00
8.500000e-01
1.000000e+00
8.500000e-01
1.000000e+00
8.500000e-01
1.000000e+00
8.500000e-01
1.000000e+00
8.500000e-01
1.000000e+00
</DataArray>
<DataArray type="Float32" Name="V5" format="ascii">
0.000000e+00
0.000000e+00
5.235988e-02
5.235988e-02
5.235988e-02
5.235988e-02
1.047198e-01
1.047198e-01
1.047198e-01
1.047198e-01
1.570796e-01
1.570796e-01
1.570796e-01
1.570796e-01
2.094395e-01
2.094395e-01
2.094395e-01
2.094395e-01
2.617994e-01
2.617994e-01
2.617994e-01
2.617994e-01
3.141593e-01
3.141593e-01
3.141593e-01
3.141593e-01
3.665191e-01
3.665191e-01
3.665191e-01
3.665191e-01
4.188790e-01
4.188790e-01
4.188790e-01
4.188790e-01
4.712389e-01
4.712389e-01
4.712389e-01
4.712389e-01
5.235988e-01
5.235988e-01
5.235988e-01
5.235988e-01
5.759587e-01
5.759587e-01
5.759587e-01
5.759587e-01
6.283185e-01
6.283185e-01
6.283185e-01
6.283185e-01
6.806784e-01
6.806784e-01
6.806784e-01
6.806784e-01
7.330383e-01
7.330383e-01
7.330383e-01
7.330383e-01
7.853982e-01
7.853982e-01
7.853982e-01
7.853982e-01
8.377580e-01
8.377580e-01
8.377580e-01
8.377580e-01
8.901179e-01
8.901179e-01
8.901179e-01
8.901179e-01
9.424778e-01
9.424778e-01
9.424778e-01
9.424778e-01
9.948377e-01
9.948377e-01
9.948377e-01
9.948377e-01
1.047198e+00
1.047198e+00
1.047198e+00
1.047198e+00
1.099557e+00
1.099557e+00
1.099557e+00
1.099557e+00
1.151917e+00
1.151917e+00
1.151917e+00
1.151917e+00
1.204277e+00
1.204277e+00
1.204277e+00
1.204277e+00
1.256637e+00
1.256637e+00
1.256637e+00
1.256637e+00
1.308997e+00
1.308997e+00
1.308997e+00
1.308997e+00
1.361357e+00
1.361357e+00
1.361357e+00
1.361357e+00
1.413717e+00
1.413717e+00
1.413717e+00
1.413717e+00
1.466077e+00
1.466077e+00
1.466077e+00
1.466077e+00
1.518436e+00
1.518436e+00
1.518436e+00
1.518436e+00
1.570796e+00
1.570796e+00
</DataArray>
</PointData>
</Piece></UnstructuredGrid>
</VTKFile>
