<?xml version="1.0"?>
<VTKFile type="UnstructuredGrid" version="0.1" byte_order="LittleEndian" compressor="vtkZLibDataCompressor">
<UnstructuredGrid>
<Piece NumberOfPoints="120" NumberOfCells="30">
<Points>
<DataArray type="Float32" NumberOfComponents="3" format="ascii">
0.000000e+00 6.636392e-01 0.000000e+00
0.000000e+00 7.600000e-01 0.000000e+00
6.050099e-02 6.636832e-01 0.000000e+00
6.051137e-02 7.600000e-01 0.000000e+00
6.050099e-02 6.636832e-01 0.000000e+00
6.051137e-02 7.600000e-01 0.000000e+00
1.209874e-01 6.637734e-01 0.000000e+00
1.210126e-01 7.600000e-01 0.000000e+00
1.209874e-01 6.637734e-01 0.000000e+00
1.210126e-01 7.600000e-01 0.000000e+00
1.814415e-01 6.639245e-01 0.000000e+00
1.814962e-01 7.600000e-01 0.000000e+00
1.814415e-01 6.639245e-01 0.000000e+00
1.814962e-01 7.600000e-01 0.000000e+00
2.418461e-01 6.641373e-01 0.000000e+00
2.419564e-01 7.600000e-01 0.000000e+00
2.418461e-01 6.641373e-01 0.000000e+00
2.419564e-01 7.600000e-01 0.000000e+00
3.021807e-01 6.644135e-01 0.000000e+00
3.023931e-01 7.600000e-01 0.000000e+00
3.021807e-01 6.644135e-01 0.000000e+00
3.023931e-01 7.600000e-01 0.000000e+00
3.624200e-01 6.647562e-01 0.000000e+00
3.628165e-01 7.600000e-01 0.000000e+00
3.624200e-01 6.647562e-01 0.000000e+00
3.628165e-01 7.600000e-01 0.000000e+00
4.225297e-01 6.651706e-01 0.000000e+00
4.232537e-01 7.600000e-01 0.000000e+00
4.225297e-01 6.651706e-01 0.000000e+00
4.232537e-01 7.600000e-01 0.000000e+00
4.824582e-01 6.656639e-01 0.000000e+00
4.837605e-01 7.600000e-01 0.000000e+00
4.824582e-01 6.656639e-01 0.000000e+00
4.837605e-01 7.600000e-01 0.000000e+00
5.421212e-01 6.662443e-01 0.000000e+00
5.444377e-01 7.600000e-01 0.000000e+00
5.421212e-01 6.662443e-01 0.000000e+00
5.444377e-01 7.600000e-01 0.000000e+00
6.013705e-01 6.669109e-01 0.000000e+00
6.054481e-01 7.600000e-01 0.000000e+00
6.013705e-01 6.669109e-01 0.000000e+00
6.054481e-01 7.600000e-01 0.000000e+00
6.599356e-01 6.676148e-01 0.000000e+00
6.670140e-01 7.600000e-01 0.000000e+00
6.599356e-01 6.676148e-01 0.000000e+00
6.670140e-01 7.600000e-01 0.000000e+00
7.173362e-01 6.680662e-01 0.000000e+00
7.293130e-01 7.600000e-01 0.000000e+00
7.173362e-01 6.680662e-01 0.000000e+00
7.293130e-01 7.600000e-01 0.000000e+00
7.733646e-01 6.678861e-01 0.000000e+00
7.913207e-01 7.597884e-01 0.000000e+00
7.733646e-01 6.678861e-01 0.000000e+00
7.913207e-01 7.597884e-01 0.000000e+00
8.279083e-01 6.620597e-01 0.000000e+00
8.519341e-01 7.517287e-01 0.000000e+00
8.279083e-01 6.620597e-01 0.000000e+00
8.519341e-01 7.517287e-01 0.000000e+00
8.800784e-01 6.494868e-01 0.000000e+00
9.117047e-01 7.357674e-01 0.000000e+00
8.800784e-01 6.494868e-01 0.000000e+00
9.117047e-01 7.357674e-01 0.000000e+00
9.298629e-01 6.304642e-01 0.000000e+00
9.694409e-01 7.125478e-01 0.000000e+00
9.298629e-01 6.304642e-01 0.000000e+00
9.694409e-01 7.125478e-01 0.000000e+00
9.770165e-01 6.057459e-01 0.000000e+00
1.024205e+00 6.829268e-01 0.000000e+00
9.770165e-01 6.057459e-01 0.000000e+00
1.024205e+00 6.829268e-01 0.000000e+00
1.021294e+00 5.759696e-01 0.000000e+00
1.075413e+00 6.477290e-01 0.000000e+00
1.021294e+00 5.759696e-01 0.000000e+00
1.075413e+00 6.477290e-01 0.000000e+00
1.062496e+00 5.417414e-01 0.000000e+00
1.122745e+00 6.077402e-01 0.000000e+00
1.062496e+00 5.417414e-01 0.000000e+00
1.122745e+00 6.077402e-01 0.000000e+00
1.100463e+00 5.036119e-01 0.000000e+00
1.166037e+00 5.636538e-01 0.000000e+00
1.100463e+00 5.036119e-01 0.000000e+00
1.166037e+00 5.636538e-01 0.000000e+00
1.135069e+00 4.620832e-01 0.000000e+00
1.205213e+00 5.160718e-01 0.000000e+00
1.135069e+00 4.620832e-01 0.000000e+00
1.205213e+00 5.160718e-01 0.000000e+00
1.166217e+00 4.176115e-01 0.000000e+00
1.240245e+00 4.655144e-01 0.000000e+00
1.166217e+00 4.176115e-01 0.000000e+00
1.240245e+00 4.655144e-01 0.000000e+00
1.193834e+00 3.706131e-01 0.000000e+00
1.271129e+00 4.124353e-01 0.000000e+00
1.193834e+00 3.706131e-01 0.000000e+00
1.271129e+00 4.124353e-01 0.000000e+00
1.217862e+00 3.214698e-01 0.000000e+00
1.297871e+00 3.572354e-01 0.000000e+00
1.217862e+00 3.214698e-01 0.000000e+00
1.297871e+00 3.572354e-01 0.000000e+00
1.238257e+00 2.705347e-01 0.000000e+00
1.320481e+00 3.002756e-01 0.000000e+00
1.238257e+00 2.705347e-01 0.000000e+00
1.320481e+00 3.002756e-01 0.000000e+00
1.254985e+00 2.181382e-01 0.000000e+00
1.338967e+00 2.418867e-01 0.000000e+00
1.254985e+00 2.181382e-01 0.000000e+00
1.338967e+00 2.418867e-01 0.000000e+00
1.268021e+00 1.645925e-01 0.000000e+00
1.353339e+00 1.823771e-01 0.000000e+00
1.268021e+00 1.645925e-01 0.000000e+00
1.353339e+00 1.823771e-01 0.000000e+00
1.277345e+00 1.101961e-01 0.000000e+00
1.363600e+00 1.220395e-01 0.000000e+00
1.277345e+00 1.101961e-01 0.000000e+00
1.363600e+00 1.220395e-01 0.000000e+00
1.282944e+00 5.523776e-02 0.000000e+00
1.369756e+00 6.115555e-02 0.000000e+00
1.282944e+00 5.523776e-02 0.000000e+00
1.369756e+00 6.115555e-02 0.000000e+00
1.284812e+00 6.291190e-12 0.000000e+00
1.371808e+00 6.717180e-12 0.000000e+00
</DataArray>
</Points>
<Cells>
<DataArray type="Int32" Name="connectivity" format="ascii">
0 1 3 2
4 5 7 6
8 9 11 10
12 13 15 14
16 17 19 18
20 21 23 22
24 25 27 26
28 29 31 30
32 33 35 34
36 37 39 38
40 41 43 42
44 45 47 46
48 49 51 50
52 53 55 54
56 57 59 58
60 61 63 62
64 65 67 66
68 69 71 70
72 73 75 74
76 77 79 78
80 81 83 82
84 85 87 86
88 89 91 90
92 93 95 94
96 97 99 98
100 101 103 102
104 105 107 106
108 109 111 110
112 113 115 114
116 117 119 118
</DataArray>
<DataArray type="Int32" Name="offsets" format="ascii">
4
8
12
16
20
24
28
32
36
40
44
48
52
56
60
64
68
72
76
80
84
88
92
96
100
104
108
112
116
120
</DataArray>
<DataArray type="UInt8" Name="types" format="ascii">
9
9
9
9
9
9
9
9
9
9
9
9
9
9
9
9
9
9
9
9
9
9
9
9
9
9
9
9
9
9
</DataArray>
</Cells>
<PointData>
<DataArray type="Float32" Name="V1" format="ascii">
1.730888e+02
-3.539912e+01
1.732740e+02
-3.521388e+01
1.735380e+02
-3.538039e+01
1.740473e+02
-3.487114e+01
1.745771e+02
-3.521360e+01
1.754472e+02
-3.434355e+01
1.762102e+02
-3.485050e+01
1.774546e+02
-3.360615e+01
1.784123e+02
-3.425378e+01
1.800529e+02
-3.261316e+01
1.811293e+02
-3.335502e+01
1.831996e+02
-3.128463e+01
1.842494e+02
-3.203182e+01
1.867997e+02
-2.948154e+01
1.875508e+02
-3.006340e+01
1.906563e+02
-2.695791e+01
1.906064e+02
-2.704516e+01
1.943810e+02
-2.327058e+01
1.926184e+02
-2.222094e+01
1.972358e+02
-1.760350e+01
1.921404e+02
-1.414535e+01
1.979039e+02
-8.381808e+00
1.866296e+02
-8.462799e-02
1.945576e+02
7.843309e+00
1.713880e+02
2.801223e+01
1.842650e+02
4.088918e+01
1.594928e+02
6.338502e+01
1.690591e+02
7.295136e+01
1.570585e+02
8.053139e+01
1.641299e+02
8.760277e+01
1.595265e+02
9.130438e+01
1.662704e+02
9.804818e+01
1.655453e+02
9.875080e+01
1.720044e+02
1.052099e+02
1.733263e+02
1.041494e+02
1.793400e+02
1.101632e+02
1.817186e+02
1.081860e+02
1.871793e+02
1.136468e+02
1.900082e+02
1.112955e+02
1.948696e+02
1.161570e+02
1.977875e+02
1.137526e+02
2.020482e+02
1.180133e+02
2.048428e+02
1.157355e+02
2.085262e+02
1.194189e+02
2.110793e+02
1.173606e+02
2.142200e+02
1.205014e+02
2.164709e+02
1.187045e+02
2.191066e+02
1.213402e+02
2.210293e+02
1.198183e+02
2.231956e+02
1.219847e+02
2.247837e+02
1.207365e+02
2.265123e+02
1.224652e+02
2.277690e+02
1.214830e+02
2.290862e+02
1.228002e+02
2.300189e+02
1.220743e+02
2.309452e+02
1.230005e+02
2.315618e+02
1.225220e+02
2.321118e+02
1.230720e+02
2.324184e+02
1.228344e+02
2.326008e+02
1.230168e+02
</DataArray>
<DataArray type="Float32" Name="V2" format="ascii">
6.636392e-01
7.600000e-01
6.659400e-01
7.621254e-01
6.659400e-01
7.621254e-01
6.727838e-01
7.684859e-01
6.727838e-01
7.684859e-01
6.841342e-01
7.790354e-01
6.841342e-01
7.790354e-01
6.999069e-01
7.936977e-01
6.999069e-01
7.936977e-01
7.199843e-01
8.123687e-01
7.199843e-01
8.123687e-01
7.442147e-01
8.349194e-01
7.442147e-01
8.349194e-01
7.724114e-01
8.612017e-01
7.724114e-01
8.612017e-01
8.043477e-01
8.910577e-01
8.043477e-01
8.910577e-01
8.397459e-01
9.243345e-01
8.397459e-01
9.243345e-01
8.782470e-01
9.609033e-01
8.782470e-01
9.609033e-01
9.193356e-01
1.000671e+00
9.193356e-01
1.000671e+00
9.621165e-01
1.043532e+00
9.621165e-01
1.043532e+00
1.005739e+00
1.088461e+00
1.005739e+00
1.088461e+00
1.045985e+00
1.128698e+00
1.045985e+00
1.128698e+00
1.081566e+00
1.164939e+00
1.081566e+00
1.164939e+00
1.112886e+00
1.197223e+00
1.112886e+00
1.197223e+00
1.140493e+00
1.225737e+00
1.140493e+00
1.225737e+00
1.164791e+00
1.250753e+00
1.164791e+00
1.250753e+00
1.186138e+00
1.272612e+00
1.186138e+00
1.272612e+00
1.204835e+00
1.291645e+00
1.204835e+00
1.291645e+00
1.221135e+00
1.308144e+00
1.221135e+00
1.308144e+00
1.235251e+00
1.322362e+00
1.235251e+00
1.322362e+00
1.247356e+00
1.334504e+00
1.247356e+00
1.334504e+00
1.257596e+00
1.344740e+00
1.257596e+00
1.344740e+00
1.266084e+00
1.353203e+00
1.266084e+00
1.353203e+00
1.272914e+00
1.359999e+00
1.272914e+00
1.359999e+00
1.278157e+00
1.365207e+00
1.278157e+00
1.365207e+00
1.281866e+00
1.368887e+00
1.281866e+00
1.368887e+00
1.284077e+00
1.371079e+00
1.284077e+00
1.371079e+00
1.284812e+00
1.371808e+00
</DataArray>
<DataArray type="Float32" Name="V3" format="ascii">
0.000000e+00
0.000000e+00
2.568358e-02
2.065312e-02
2.568358e-02
2.065312e-02
5.094136e-02
4.090806e-02
5.094136e-02
4.090806e-02
7.534703e-02
6.037149e-02
7.534703e-02
6.037149e-02
9.847928e-02
7.865615e-02
9.847928e-02
7.865615e-02
1.199213e-01
9.538684e-02
1.199213e-01
9.538684e-02
1.392610e-01
1.102061e-01
1.392610e-01
1.102061e-01
1.560896e-01
1.227817e-01
1.560896e-01
1.227817e-01
1.699976e-01
1.328173e-01
1.699976e-01
1.328173e-01
1.805649e-01
1.400647e-01
1.805649e-01
1.400647e-01
1.873466e-01
1.443334e-01
1.873466e-01
1.443334e-01
1.898595e-01
1.454793e-01
1.898595e-01
1.454793e-01
1.876577e-01
1.433098e-01
1.876577e-01
1.433098e-01
1.807029e-01
1.368214e-01
1.807029e-01
1.368214e-01
1.722514e-01
1.301057e-01
1.722514e-01
1.301057e-01
1.630529e-01
1.244065e-01
1.630529e-01
1.244065e-01
1.536735e-01
1.191563e-01
1.536735e-01
1.191563e-01
1.441034e-01
1.138196e-01
1.441034e-01
1.138196e-01
1.343323e-01
1.080881e-01
1.343323e-01
1.080881e-01
1.243343e-01
1.017971e-01
1.243343e-01
1.017971e-01
1.140907e-01
9.488004e-02
1.140907e-01
9.488004e-02
1.035914e-01
8.733191e-02
1.035914e-01
8.733191e-02
9.283629e-02
7.918445e-02
9.283629e-02
7.918445e-02
8.183483e-02
7.049029e-02
8.183483e-02
7.049029e-02
7.060425e-02
6.131310e-02
7.060425e-02
6.131310e-02
5.916810e-02
5.172156e-02
5.916810e-02
5.172156e-02
4.755473e-02
4.178609e-02
4.755473e-02
4.178609e-02
3.579604e-02
3.157706e-02
3.579604e-02
3.157706e-02
2.392645e-02
2.116406e-02
2.392645e-02
2.116406e-02
1.198205e-02
1.061575e-02
1.198205e-02
1.061575e-02
0.000000e+00
0.000000e+00
</DataArray>
<DataArray type="Float32" Name="V4" format="ascii">
8.500000e-01
1.000000e+00
8.500000e-01
1.000000e+00
8.500000e-01
1.000000e+00
8.500000e-01
1.000000e+00
8.500000e-01
1.000000e+00
8.500000e-01
1.000000e+00
8.500000e-01
1.000000e+00
8.500000e-01
1.000000e+00
8.500000e-01
1.000000e+00
8.500000e-01
1.000000e+00
8.500000e-01
1.000000e+00
8.500000e-01
1.000000e+00
8.500000e-01
1.000000e+00
8.500000e-01
1.000000e+00
8.500000e-01
1.000000e+00
8.500000e-01
1.000000e+00
8.500000e-01
1.000000e+00
8.500000e-01
1.000000e+00
8.500000e-01
1.000000e+00
8.500000e-01
1.000000e+00
8.500000e-01
1.000000e+00
8.500000e-01
1.000000e+00
8.500000e-01
1.000000e+00
8.500000e-01
1.000000e+00
8.500000e-01
1.000000e+00
8.500000e-01
1.000000e+00
8.500000e-01
1.000000e+00
8.500000e-01
1.000000e+00
8.500000e-01
1.000000e+00
8.500000e-01
1.000000e+00
8.500000e-01
1.000000e+00
8.500000e-01
1.000000e+00
8.500000e-01
1.000000e+00
8.500000e-01
1.000000e+00
8.500000e-01
1.000000e+00
8.500000e-01
1.000000e+00
8.500000e-01
1.000000e+00
8.500000e-01
1.000000e+00
8.500000e-01
1.000000e+00
8.500000e-01
1.000000e+00
8.500000e-01
1.000000e+00
8.500000e-01
1.000000e+00
8.500000e-01
1.000000e+00
8.500000e-01
1.000000e+00
8.500000e-01
1.000000e+00
8.500000e-01
1.000000e+00
8.500000e-01
1.000000e+00
8.500000e-01
1.000000e+00
8.500000e-01
1.000000e+00
8.500000e-01
1.000000e+00
8.500000e-01
1.000000e+00
8.500000e-01
1.000000e+00
8.500000e-01
1.000000e+00
8.500000e-01
1.000000e+00
8.500000e-01
1.000000e+00
8.500000e-01
1.000000e+00
8.500000e-01
1.000000e+00
8.500000e-01
1.000000e+00
8.500000e-01
1.000000e+00
8.500000e-01
1.000000e+00
</DataArray>
<DataArray type="Float32" Name="V5" format="ascii">
0.000000e+00
0.000000e+00
5.235988e-02
5.235988e-02
5.235988e-02
5.235988e-02
1.047198e-01
1.047198e-01
1.047198e-01
1.047198e-01
1.570796e-01
1.570796e-01
1.570796e-01
1.570796e-01
2.094395e-01
2.094395e-01
2.094395e-01
2.094395e-01
2.617994e-01
2.617994e-01
2.617994e-01
2.617994e-01
3.141593e-01
3.141593e-01
3.141593e-01
3.141593e-01
3.665191e-01
3.665191e-01
3.665191e-01
3.665191e-01
4.188790e-01
4.188790e-01
4.188790e-01
4.188790e-01
4.712389e-01
4.712389e-01
4.712389e-01
4.712389e-01
5.235988e-01
5.235988e-01
5.235988e-01
5.235988e-01
5.759587e-01
5.759587e-01
5.759587e-01
5.759587e-01
6.283185e-01
6.283185e-01
6.283185e-01
6.283185e-01
6.806784e-01
6.806784e-01
6.806784e-01
6.806784e-01
7.330383e-01
7.330383e-01
7.330383e-01
7.330383e-01
7.853982e-01
7.853982e-01
7.853982e-01
7.853982e-01
8.377580e-01
8.377580e-01
8.377580e-01
8.377580e-01
8.901179e-01
8.901179e-01
8.901179e-01
8.901179e-01
9.424778e-01
9.424778e-01
9.424778e-01
9.424778e-01
9.948377e-01
9.948377e-01
9.948377e-01
9.948377e-01
1.047198e+00
1.047198e+00
1.047198e+00
1.047198e+00
1.099557e+00
1.099557e+00
1.099557e+00
1.099557e+00
1.151917e+00
1.151917e+00
1.151917e+00
1.151917e+00
1.204277e+00
1.204277e+00
1.204277e+00
1.204277e+00
1.256637e+00
1.256637e+00
1.256637e+00
1.256637e+00
1.308997e+00
1.308997e+00
1.308997e+00
1.308997e+00
1.361357e+00
1.361357e+00
1.361357e+00
1.361357e+00
1.413717e+00
1.413717e+00
1.413717e+00
1.413717e+00
1.466077e+00
1.466077e+00
1.466077e+00
1.466077e+00
1.518436e+00
1.518436e+00
1.518436e+00
1.518436e+00
1.570796e+00
1.570796e+00
</DataArray>
</PointData>
</Piece></UnstructuredGrid>
</VTKFile>
