<?xml version="1.0"?>
<VTKFile type="UnstructuredGrid" version="0.1" byte_order="LittleEndian" compressor="vtkZLibDataCompressor">
<UnstructuredGrid>
<Piece NumberOfPoints="120" NumberOfCells="30">
<Points>
<DataArray type="Float32" NumberOfComponents="3" format="ascii">
0.000000e+00 6.728299e-01 0.000000e+00
0.000000e+00 7.700000e-01 0.000000e+00
6.024753e-02 6.728742e-01 0.000000e+00
6.026085e-02 7.700000e-01 0.000000e+00
6.024753e-02 6.728742e-01 0.000000e+00
6.026085e-02 7.700000e-01 0.000000e+00
1.204800e-01 6.729651e-01 0.000000e+00
1.205122e-01 7.700000e-01 0.000000e+00
1.204800e-01 6.729651e-01 0.000000e+00
1.205122e-01 7.700000e-01 0.000000e+00
1.806793e-01 6.731175e-01 0.000000e+00
1.807477e-01 7.700000e-01 0.000000e+00
1.806793e-01 6.731175e-01 0.000000e+00
1.807477e-01 7.700000e-01 0.000000e+00
2.408273e-01 6.733325e-01 0.000000e+00
2.409628e-01 7.700000e-01 0.000000e+00
2.408273e-01 6.733325e-01 0.000000e+00
2.409628e-01 7.700000e-01 0.000000e+00
3.009024e-01 6.736122e-01 0.000000e+00
3.011604e-01 7.700000e-01 0.000000e+00
3.009024e-01 6.736122e-01 0.000000e+00
3.011604e-01 7.700000e-01 0.000000e+00
3.608771e-01 6.739606e-01 0.000000e+00
3.613548e-01 7.700000e-01 0.000000e+00
3.608771e-01 6.739606e-01 0.000000e+00
3.613548e-01 7.700000e-01 0.000000e+00
4.207132e-01 6.743836e-01 0.000000e+00
4.215806e-01 7.700000e-01 0.000000e+00
4.207132e-01 6.743836e-01 0.000000e+00
4.215806e-01 7.700000e-01 0.000000e+00
4.803520e-01 6.748894e-01 0.000000e+00
4.819049e-01 7.700000e-01 0.000000e+00
4.803520e-01 6.748894e-01 0.000000e+00
4.819049e-01 7.700000e-01 0.000000e+00
5.396952e-01 6.754854e-01 0.000000e+00
5.424443e-01 7.700000e-01 0.000000e+00
5.396952e-01 6.754854e-01 0.000000e+00
5.424443e-01 7.700000e-01 0.000000e+00
5.985683e-01 6.761633e-01 0.000000e+00
6.033792e-01 7.700000e-01 0.000000e+00
5.985683e-01 6.761633e-01 0.000000e+00
6.033792e-01 7.700000e-01 0.000000e+00
6.566531e-01 6.768364e-01 0.000000e+00
6.649348e-01 7.700000e-01 0.000000e+00
6.566531e-01 6.768364e-01 0.000000e+00
6.649348e-01 7.700000e-01 0.000000e+00
7.134520e-01 6.771576e-01 0.000000e+00
7.271576e-01 7.700000e-01 0.000000e+00
7.134520e-01 6.771576e-01 0.000000e+00
7.271576e-01 7.700000e-01 0.000000e+00
7.689972e-01 6.760032e-01 0.000000e+00
7.884773e-01 7.684010e-01 0.000000e+00
7.689972e-01 6.760032e-01 0.000000e+00
7.884773e-01 7.684010e-01 0.000000e+00
8.227238e-01 6.683144e-01 0.000000e+00
8.487832e-01 7.581342e-01 0.000000e+00
8.227238e-01 6.683144e-01 0.000000e+00
8.487832e-01 7.581342e-01 0.000000e+00
8.741744e-01 6.541224e-01 0.000000e+00
9.080036e-01 7.403771e-01 0.000000e+00
8.741744e-01 6.541224e-01 0.000000e+00
9.080036e-01 7.403771e-01 0.000000e+00
9.232308e-01 6.337689e-01 0.000000e+00
9.649602e-01 7.156818e-01 0.000000e+00
9.232308e-01 6.337689e-01 0.000000e+00
9.649602e-01 7.156818e-01 0.000000e+00
9.696560e-01 6.079746e-01 0.000000e+00
1.018845e+00 6.848930e-01 0.000000e+00
9.696560e-01 6.079746e-01 0.000000e+00
1.018845e+00 6.848930e-01 0.000000e+00
1.013221e+00 5.773468e-01 0.000000e+00
1.069159e+00 6.488035e-01 0.000000e+00
1.013221e+00 5.773468e-01 0.000000e+00
1.069159e+00 6.488035e-01 0.000000e+00
1.053742e+00 5.424608e-01 0.000000e+00
1.115637e+00 6.081550e-01 0.000000e+00
1.053742e+00 5.424608e-01 0.000000e+00
1.115637e+00 6.081550e-01 0.000000e+00
1.091070e+00 5.038390e-01 0.000000e+00
1.158140e+00 5.635985e-01 0.000000e+00
1.091070e+00 5.038390e-01 0.000000e+00
1.158140e+00 5.635985e-01 0.000000e+00
1.125088e+00 4.619575e-01 0.000000e+00
1.196605e+00 5.156986e-01 0.000000e+00
1.125088e+00 4.619575e-01 0.000000e+00
1.196605e+00 5.156986e-01 0.000000e+00
1.155705e+00 4.172498e-01 0.000000e+00
1.231009e+00 4.649447e-01 0.000000e+00
1.155705e+00 4.172498e-01 0.000000e+00
1.231009e+00 4.649447e-01 0.000000e+00
1.182850e+00 3.701121e-01 0.000000e+00
1.261346e+00 4.117652e-01 0.000000e+00
1.182850e+00 3.701121e-01 0.000000e+00
1.261346e+00 4.117652e-01 0.000000e+00
1.206468e+00 3.209086e-01 0.000000e+00
1.287623e+00 3.565409e-01 0.000000e+00
1.206468e+00 3.209086e-01 0.000000e+00
1.287623e+00 3.565409e-01 0.000000e+00
1.226516e+00 2.699774e-01 0.000000e+00
1.309845e+00 2.996164e-01 0.000000e+00
1.226516e+00 2.699774e-01 0.000000e+00
1.309845e+00 2.996164e-01 0.000000e+00
1.242960e+00 2.176354e-01 0.000000e+00
1.328018e+00 2.413087e-01 0.000000e+00
1.242960e+00 2.176354e-01 0.000000e+00
1.328018e+00 2.413087e-01 0.000000e+00
1.255776e+00 1.641829e-01 0.000000e+00
1.342149e+00 1.819151e-01 0.000000e+00
1.255776e+00 1.641829e-01 0.000000e+00
1.342149e+00 1.819151e-01 0.000000e+00
1.264942e+00 1.099078e-01 0.000000e+00
1.352240e+00 1.217183e-01 0.000000e+00
1.264942e+00 1.099078e-01 0.000000e+00
1.352240e+00 1.217183e-01 0.000000e+00
1.270448e+00 5.508910e-02 0.000000e+00
1.358294e+00 6.099099e-02 0.000000e+00
1.270448e+00 5.508910e-02 0.000000e+00
1.358294e+00 6.099099e-02 0.000000e+00
1.272284e+00 6.229850e-12 0.000000e+00
1.360312e+00 6.660890e-12 0.000000e+00
</DataArray>
</Points>
<Cells>
<DataArray type="Int32" Name="connectivity" format="ascii">
0 1 3 2
4 5 7 6
8 9 11 10
12 13 15 14
16 17 19 18
20 21 23 22
24 25 27 26
28 29 31 30
32 33 35 34
36 37 39 38
40 41 43 42
44 45 47 46
48 49 51 50
52 53 55 54
56 57 59 58
60 61 63 62
64 65 67 66
68 69 71 70
72 73 75 74
76 77 79 78
80 81 83 82
84 85 87 86
88 89 91 90
92 93 95 94
96 97 99 98
100 101 103 102
104 105 107 106
108 109 111 110
112 113 115 114
116 117 119 118
</DataArray>
<DataArray type="Int32" Name="offsets" format="ascii">
4
8
12
16
20
24
28
32
36
40
44
48
52
56
60
64
68
72
76
80
84
88
92
96
100
104
108
112
116
120
</DataArray>
<DataArray type="UInt8" Name="types" format="ascii">
9
9
9
9
9
9
9
9
9
9
9
9
9
9
9
9
9
9
9
9
9
9
9
9
9
9
9
9
9
9
</DataArray>
</Cells>
<PointData>
<DataArray type="Float32" Name="V1" format="ascii">
1.666698e+02
-3.495234e+01
1.668475e+02
-3.477466e+01
1.670991e+02
-3.493290e+01
1.675872e+02
-3.444480e+01
1.680905e+02
-3.476928e+01
1.689248e+02
-3.393496e+01
1.696437e+02
-3.441190e+01
1.708379e+02
-3.321772e+01
1.717263e+02
-3.381887e+01
1.733027e+02
-3.224246e+01
1.742713e+02
-3.291321e+01
1.762645e+02
-3.092002e+01
1.771439e+02
-3.155623e+01
1.796063e+02
-2.909389e+01
1.800820e+02
-2.949639e+01
1.830931e+02
-2.648530e+01
1.825897e+02
-2.627031e+01
1.862705e+02
-2.258946e+01
1.837541e+02
-2.100787e+01
1.882924e+02
-1.646954e+01
1.819459e+02
-1.205348e+01
1.877244e+02
-6.274964e+00
1.742984e+02
4.034453e+00
1.825860e+02
1.232204e+01
1.576662e+02
3.591927e+01
1.703192e+02
4.857231e+01
1.497017e+02
6.429222e+01
1.575527e+02
7.214325e+01
1.484374e+02
7.842213e+01
1.548763e+02
8.486099e+01
1.515440e+02
8.762226e+01
1.577224e+02
9.380066e+01
1.575448e+02
9.403276e+01
1.634168e+02
9.990477e+01
1.649036e+02
9.869252e+01
1.703285e+02
1.041175e+02
1.726596e+02
1.021776e+02
1.775562e+02
1.070742e+02
1.802252e+02
1.048597e+02
1.845652e+02
1.091997e+02
1.872712e+02
1.069757e+02
1.910625e+02
1.107670e+02
1.936296e+02
1.086804e+02
1.968993e+02
1.119500e+02
1.992310e+02
1.100750e+02
2.020138e+02
1.128579e+02
2.040619e+02
1.112268e+02
2.063940e+02
1.135589e+02
2.081391e+02
1.121804e+02
2.100539e+02
1.140952e+02
2.114928e+02
1.129663e+02
2.130195e+02
1.144930e+02
2.141568e+02
1.136054e+02
2.153194e+02
1.147681e+02
2.161629e+02
1.141125e+02
2.169801e+02
1.149297e+02
2.175374e+02
1.144977e+02
2.180225e+02
1.149828e+02
2.182996e+02
1.147684e+02
2.184604e+02
1.149292e+02
</DataArray>
<DataArray type="Float32" Name="V2" format="ascii">
6.728299e-01
7.700000e-01
6.751052e-01
7.720986e-01
6.751052e-01
7.720986e-01
6.818721e-01
7.783788e-01
6.818721e-01
7.783788e-01
6.930948e-01
7.887952e-01
6.930948e-01
7.887952e-01
7.086894e-01
8.032726e-01
7.086894e-01
8.032726e-01
7.285387e-01
8.217089e-01
7.285387e-01
8.217089e-01
7.524918e-01
8.439783e-01
7.524918e-01
8.439783e-01
7.803615e-01
8.699379e-01
7.803615e-01
8.699379e-01
8.119189e-01
8.994384e-01
8.119189e-01
8.994384e-01
8.468783e-01
9.323396e-01
8.468783e-01
9.323396e-01
8.848588e-01
9.685292e-01
8.848588e-01
9.685292e-01
9.252817e-01
1.007926e+00
9.252817e-01
1.007926e+00
9.671886e-01
1.050356e+00
9.671886e-01
1.050356e+00
1.009299e+00
1.093365e+00
1.009299e+00
1.093365e+00
1.047164e+00
1.131350e+00
1.047164e+00
1.131350e+00
1.080669e+00
1.165581e+00
1.080669e+00
1.165581e+00
1.110168e+00
1.195990e+00
1.110168e+00
1.195990e+00
1.136175e+00
1.222808e+00
1.136175e+00
1.222808e+00
1.159069e+00
1.246325e+00
1.159069e+00
1.246325e+00
1.179188e+00
1.266877e+00
1.179188e+00
1.266877e+00
1.196814e+00
1.284778e+00
1.196814e+00
1.284778e+00
1.212185e+00
1.300305e+00
1.212185e+00
1.300305e+00
1.225500e+00
1.313692e+00
1.225500e+00
1.313692e+00
1.236922e+00
1.325132e+00
1.236922e+00
1.325132e+00
1.246585e+00
1.334779e+00
1.246585e+00
1.334779e+00
1.254599e+00
1.342759e+00
1.254599e+00
1.342759e+00
1.261048e+00
1.349169e+00
1.261048e+00
1.349169e+00
1.265999e+00
1.354083e+00
1.265999e+00
1.354083e+00
1.269501e+00
1.357556e+00
1.269501e+00
1.357556e+00
1.271590e+00
1.359625e+00
1.271590e+00
1.359625e+00
1.272284e+00
1.360312e+00
</DataArray>
<DataArray type="Float32" Name="V3" format="ascii">
0.000000e+00
0.000000e+00
2.494944e-02
1.987958e-02
2.494944e-02
1.987958e-02
4.947598e-02
3.936515e-02
4.947598e-02
3.936515e-02
7.315609e-02
5.806781e-02
7.315609e-02
5.806781e-02
9.557097e-02
7.560520e-02
9.557097e-02
7.560520e-02
1.163057e-01
9.160794e-02
1.163057e-01
9.160794e-02
1.349492e-01
1.057258e-01
1.349492e-01
1.057258e-01
1.510922e-01
1.176361e-01
1.510922e-01
1.176361e-01
1.643211e-01
1.270548e-01
1.643211e-01
1.270548e-01
1.742080e-01
1.337488e-01
1.742080e-01
1.337488e-01
1.802937e-01
1.375417e-01
1.802937e-01
1.375417e-01
1.820840e-01
1.382892e-01
1.820840e-01
1.382892e-01
1.791715e-01
1.356882e-01
1.791715e-01
1.356882e-01
1.722005e-01
1.291916e-01
1.722005e-01
1.291916e-01
1.642134e-01
1.234780e-01
1.642134e-01
1.234780e-01
1.556002e-01
1.185299e-01
1.556002e-01
1.185299e-01
1.467799e-01
1.138292e-01
1.467799e-01
1.138292e-01
1.377393e-01
1.089178e-01
1.377393e-01
1.089178e-01
1.284731e-01
1.035431e-01
1.284731e-01
1.035431e-01
1.189632e-01
9.757795e-02
1.189632e-01
9.757795e-02
1.091976e-01
9.097952e-02
1.091976e-01
9.097952e-02
9.917209e-02
8.375657e-02
9.917209e-02
8.375657e-02
8.889080e-02
7.594817e-02
8.889080e-02
7.594817e-02
7.836607e-02
6.761015e-02
7.836607e-02
6.761015e-02
6.761688e-02
5.880671e-02
6.761688e-02
5.880671e-02
5.666756e-02
4.960551e-02
5.666756e-02
4.960551e-02
4.554651e-02
4.007496e-02
4.554651e-02
4.007496e-02
3.428509e-02
3.028292e-02
3.428509e-02
3.028292e-02
2.291678e-02
2.029612e-02
2.291678e-02
2.029612e-02
1.147649e-02
1.018022e-02
1.147649e-02
1.018022e-02
0.000000e+00
0.000000e+00
</DataArray>
<DataArray type="Float32" Name="V4" format="ascii">
8.500000e-01
1.000000e+00
8.500000e-01
1.000000e+00
8.500000e-01
1.000000e+00
8.500000e-01
1.000000e+00
8.500000e-01
1.000000e+00
8.500000e-01
1.000000e+00
8.500000e-01
1.000000e+00
8.500000e-01
1.000000e+00
8.500000e-01
1.000000e+00
8.500000e-01
1.000000e+00
8.500000e-01
1.000000e+00
8.500000e-01
1.000000e+00
8.500000e-01
1.000000e+00
8.500000e-01
1.000000e+00
8.500000e-01
1.000000e+00
8.500000e-01
1.000000e+00
8.500000e-01
1.000000e+00
8.500000e-01
1.000000e+00
8.500000e-01
1.000000e+00
8.500000e-01
1.000000e+00
8.500000e-01
1.000000e+00
8.500000e-01
1.000000e+00
8.500000e-01
1.000000e+00
8.500000e-01
1.000000e+00
8.500000e-01
1.000000e+00
8.500000e-01
1.000000e+00
8.500000e-01
1.000000e+00
8.500000e-01
1.000000e+00
8.500000e-01
1.000000e+00
8.500000e-01
1.000000e+00
8.500000e-01
1.000000e+00
8.500000e-01
1.000000e+00
8.500000e-01
1.000000e+00
8.500000e-01
1.000000e+00
8.500000e-01
1.000000e+00
8.500000e-01
1.000000e+00
8.500000e-01
1.000000e+00
8.500000e-01
1.000000e+00
8.500000e-01
1.000000e+00
8.500000e-01
1.000000e+00
8.500000e-01
1.000000e+00
8.500000e-01
1.000000e+00
8.500000e-01
1.000000e+00
8.500000e-01
1.000000e+00
8.500000e-01
1.000000e+00
8.500000e-01
1.000000e+00
8.500000e-01
1.000000e+00
8.500000e-01
1.000000e+00
8.500000e-01
1.000000e+00
8.500000e-01
1.000000e+00
8.500000e-01
1.000000e+00
8.500000e-01
1.000000e+00
8.500000e-01
1.000000e+00
8.500000e-01
1.000000e+00
8.500000e-01
1.000000e+00
8.500000e-01
1.000000e+00
8.500000e-01
1.000000e+00
8.500000e-01
1.000000e+00
8.500000e-01
1.000000e+00
8.500000e-01
1.000000e+00
</DataArray>
<DataArray type="Float32" Name="V5" format="ascii">
0.000000e+00
0.000000e+00
5.235988e-02
5.235988e-02
5.235988e-02
5.235988e-02
1.047198e-01
1.047198e-01
1.047198e-01
1.047198e-01
1.570796e-01
1.570796e-01
1.570796e-01
1.570796e-01
2.094395e-01
2.094395e-01
2.094395e-01
2.094395e-01
2.617994e-01
2.617994e-01
2.617994e-01
2.617994e-01
3.141593e-01
3.141593e-01
3.141593e-01
3.141593e-01
3.665191e-01
3.665191e-01
3.665191e-01
3.665191e-01
4.188790e-01
4.188790e-01
4.188790e-01
4.188790e-01
4.712389e-01
4.712389e-01
4.712389e-01
4.712389e-01
5.235988e-01
5.235988e-01
5.235988e-01
5.235988e-01
5.759587e-01
5.759587e-01
5.759587e-01
5.759587e-01
6.283185e-01
6.283185e-01
6.283185e-01
6.283185e-01
6.806784e-01
6.806784e-01
6.806784e-01
6.806784e-01
7.330383e-01
7.330383e-01
7.330383e-01
7.330383e-01
7.853982e-01
7.853982e-01
7.853982e-01
7.853982e-01
8.377580e-01
8.377580e-01
8.377580e-01
8.377580e-01
8.901179e-01
8.901179e-01
8.901179e-01
8.901179e-01
9.424778e-01
9.424778e-01
9.424778e-01
9.424778e-01
9.948377e-01
9.948377e-01
9.948377e-01
9.948377e-01
1.047198e+00
1.047198e+00
1.047198e+00
1.047198e+00
1.099557e+00
1.099557e+00
1.099557e+00
1.099557e+00
1.151917e+00
1.151917e+00
1.151917e+00
1.151917e+00
1.204277e+00
1.204277e+00
1.204277e+00
1.204277e+00
1.256637e+00
1.256637e+00
1.256637e+00
1.256637e+00
1.308997e+00
1.308997e+00
1.308997e+00
1.308997e+00
1.361357e+00
1.361357e+00
1.361357e+00
1.361357e+00
1.413717e+00
1.413717e+00
1.413717e+00
1.413717e+00
1.466077e+00
1.466077e+00
1.466077e+00
1.466077e+00
1.518436e+00
1.518436e+00
1.518436e+00
1.518436e+00
1.570796e+00
1.570796e+00
</DataArray>
</PointData>
</Piece></UnstructuredGrid>
</VTKFile>
