<?xml version="1.0"?>
<VTKFile type="UnstructuredGrid" version="0.1" byte_order="LittleEndian" compressor="vtkZLibDataCompressor">
<UnstructuredGrid>
<Piece NumberOfPoints="120" NumberOfCells="30">
<Points>
<DataArray type="Float32" NumberOfComponents="3" format="ascii">
0.000000e+00 4.887158e-01 0.000000e+00
0.000000e+00 5.600000e-01 0.000000e+00
7.034356e-02 4.887583e-01 0.000000e+00
7.034836e-02 5.600000e-01 0.000000e+00
7.034356e-02 4.887583e-01 0.000000e+00
7.034836e-02 5.600000e-01 0.000000e+00
1.406813e-01 4.888415e-01 0.000000e+00
1.406899e-01 5.600000e-01 0.000000e+00
1.406813e-01 4.888415e-01 0.000000e+00
1.406899e-01 5.600000e-01 0.000000e+00
2.110045e-01 4.889802e-01 0.000000e+00
2.110174e-01 5.600000e-01 0.000000e+00
2.110045e-01 4.889802e-01 0.000000e+00
2.110174e-01 5.600000e-01 0.000000e+00
2.813061e-01 4.891743e-01 0.000000e+00
2.813237e-01 5.600000e-01 0.000000e+00
2.813061e-01 4.891743e-01 0.000000e+00
2.813237e-01 5.600000e-01 0.000000e+00
3.515789e-01 4.894235e-01 0.000000e+00
3.516018e-01 5.600000e-01 0.000000e+00
3.515789e-01 4.894235e-01 0.000000e+00
3.516018e-01 5.600000e-01 0.000000e+00
4.218156e-01 4.897274e-01 0.000000e+00
4.218448e-01 5.600000e-01 0.000000e+00
4.218156e-01 4.897274e-01 0.000000e+00
4.218448e-01 5.600000e-01 0.000000e+00
4.920084e-01 4.900858e-01 0.000000e+00
4.920460e-01 5.600000e-01 0.000000e+00
4.920084e-01 4.900858e-01 0.000000e+00
4.920460e-01 5.600000e-01 0.000000e+00
5.621497e-01 4.904982e-01 0.000000e+00
5.621992e-01 5.600000e-01 0.000000e+00
5.621497e-01 4.904982e-01 0.000000e+00
5.621992e-01 5.600000e-01 0.000000e+00
6.322308e-01 4.909643e-01 0.000000e+00
6.322990e-01 5.600000e-01 0.000000e+00
6.322308e-01 4.909643e-01 0.000000e+00
6.322990e-01 5.600000e-01 0.000000e+00
7.022424e-01 4.914837e-01 0.000000e+00
7.023417e-01 5.600000e-01 0.000000e+00
7.022424e-01 4.914837e-01 0.000000e+00
7.023417e-01 5.600000e-01 0.000000e+00
7.721731e-01 4.920560e-01 0.000000e+00
7.723269e-01 5.600000e-01 0.000000e+00
7.721731e-01 4.920560e-01 0.000000e+00
7.723269e-01 5.600000e-01 0.000000e+00
8.420076e-01 4.926809e-01 0.000000e+00
8.422604e-01 5.600000e-01 0.000000e+00
8.420076e-01 4.926809e-01 0.000000e+00
8.422604e-01 5.600000e-01 0.000000e+00
9.117234e-01 4.933579e-01 0.000000e+00
9.121594e-01 5.600000e-01 0.000000e+00
9.117234e-01 4.933579e-01 0.000000e+00
9.121594e-01 5.600000e-01 0.000000e+00
9.812837e-01 4.940865e-01 0.000000e+00
9.820635e-01 5.600000e-01 0.000000e+00
9.812837e-01 4.940865e-01 0.000000e+00
9.820635e-01 5.600000e-01 0.000000e+00
1.050623e+00 4.948647e-01 0.000000e+00
1.052054e+00 5.600000e-01 0.000000e+00
1.050623e+00 4.948647e-01 0.000000e+00
1.052054e+00 5.600000e-01 0.000000e+00
1.119615e+00 4.956884e-01 0.000000e+00
1.122292e+00 5.600000e-01 0.000000e+00
1.119615e+00 4.956884e-01 0.000000e+00
1.122292e+00 5.600000e-01 0.000000e+00
1.188008e+00 4.965425e-01 0.000000e+00
1.193074e+00 5.600000e-01 0.000000e+00
1.188008e+00 4.965425e-01 0.000000e+00
1.193074e+00 5.600000e-01 0.000000e+00
1.255239e+00 4.973302e-01 0.000000e+00
1.264855e+00 5.600000e-01 0.000000e+00
1.255239e+00 4.973302e-01 0.000000e+00
1.264855e+00 5.600000e-01 0.000000e+00
1.320859e+00 4.977801e-01 0.000000e+00
1.336324e+00 5.600000e-01 0.000000e+00
1.320859e+00 4.977801e-01 0.000000e+00
1.336324e+00 5.600000e-01 0.000000e+00
1.384622e+00 4.894603e-01 0.000000e+00
1.405123e+00 5.486672e-01 0.000000e+00
1.384622e+00 4.894603e-01 0.000000e+00
1.405123e+00 5.486672e-01 0.000000e+00
1.444515e+00 4.694242e-01 0.000000e+00
1.471616e+00 5.246319e-01 0.000000e+00
1.444515e+00 4.694242e-01 0.000000e+00
1.471616e+00 5.246319e-01 0.000000e+00
1.499790e+00 4.395629e-01 0.000000e+00
1.533587e+00 4.897520e-01 0.000000e+00
1.499790e+00 4.395629e-01 0.000000e+00
1.533587e+00 4.897520e-01 0.000000e+00
1.549732e+00 4.013059e-01 0.000000e+00
1.589522e+00 4.457321e-01 0.000000e+00
1.549732e+00 4.013059e-01 0.000000e+00
1.589522e+00 4.457321e-01 0.000000e+00
1.593784e+00 3.560160e-01 0.000000e+00
1.638585e+00 3.942431e-01 0.000000e+00
1.593784e+00 3.560160e-01 0.000000e+00
1.638585e+00 3.942431e-01 0.000000e+00
1.631536e+00 3.049466e-01 0.000000e+00
1.680343e+00 3.367760e-01 0.000000e+00
1.631536e+00 3.049466e-01 0.000000e+00
1.680343e+00 3.367760e-01 0.000000e+00
1.662704e+00 2.492447e-01 0.000000e+00
1.714589e+00 2.746269e-01 0.000000e+00
1.662704e+00 2.492447e-01 0.000000e+00
1.714589e+00 2.746269e-01 0.000000e+00
1.687096e+00 1.899599e-01 0.000000e+00
1.741242e+00 2.089225e-01 0.000000e+00
1.687096e+00 1.899599e-01 0.000000e+00
1.741242e+00 2.089225e-01 0.000000e+00
1.704590e+00 1.280603e-01 0.000000e+00
1.760277e+00 1.406583e-01 0.000000e+00
1.704590e+00 1.280603e-01 0.000000e+00
1.760277e+00 1.406583e-01 0.000000e+00
1.715112e+00 6.445213e-02 0.000000e+00
1.771693e+00 7.073646e-02 0.000000e+00
1.715112e+00 6.445213e-02 0.000000e+00
1.771693e+00 7.073646e-02 0.000000e+00
1.718624e+00 8.415390e-12 0.000000e+00
1.775498e+00 8.693880e-12 0.000000e+00
</DataArray>
</Points>
<Cells>
<DataArray type="Int32" Name="connectivity" format="ascii">
0 1 3 2
4 5 7 6
8 9 11 10
12 13 15 14
16 17 19 18
20 21 23 22
24 25 27 26
28 29 31 30
32 33 35 34
36 37 39 38
40 41 43 42
44 45 47 46
48 49 51 50
52 53 55 54
56 57 59 58
60 61 63 62
64 65 67 66
68 69 71 70
72 73 75 74
76 77 79 78
80 81 83 82
84 85 87 86
88 89 91 90
92 93 95 94
96 97 99 98
100 101 103 102
104 105 107 106
108 109 111 110
112 113 115 114
116 117 119 118
</DataArray>
<DataArray type="Int32" Name="offsets" format="ascii">
4
8
12
16
20
24
28
32
36
40
44
48
52
56
60
64
68
72
76
80
84
88
92
96
100
104
108
112
116
120
</DataArray>
<DataArray type="UInt8" Name="types" format="ascii">
9
9
9
9
9
9
9
9
9
9
9
9
9
9
9
9
9
9
9
9
9
9
9
9
9
9
9
9
9
9
</DataArray>
</Cells>
<PointData>
<DataArray type="Float32" Name="V1" format="ascii">
5.601240e+02
4.393809e+00
5.608064e+02
5.076190e+00
5.614934e+02
4.577487e+00
5.633458e+02
6.429859e+00
5.647675e+02
5.426823e+00
5.678974e+02
8.556697e+00
5.700331e+02
7.030978e+00
5.744747e+02
1.147254e+01
5.773441e+02
9.410271e+00
5.831490e+02
1.521514e+01
5.867774e+02
1.259834e+01
5.940147e+02
1.983568e+01
5.984320e+02
1.664215e+01
6.071904e+02
2.540057e+01
6.124296e+02
2.160471e+01
6.228197e+02
3.199486e+01
6.289129e+02
2.757009e+01
6.410711e+02
3.972833e+01
6.480407e+02
3.465186e+01
6.621345e+02
4.874562e+01
6.699761e+02
4.300886e+01
6.862119e+02
5.924464e+01
6.948583e+02
5.287398e+01
7.134946e+02
7.151030e+01
7.227442e+02
6.461008e+01
7.441126e+02
8.597847e+01
7.534844e+02
7.881992e+01
7.780249e+02
1.033603e+02
7.864711e+02
9.657068e+01
8.147869e+02
1.248864e+02
8.201250e+02
1.198690e+02
8.530474e+02
1.527913e+02
8.508745e+02
1.527083e+02
8.894749e+02
1.913087e+02
8.710664e+02
2.034331e+02
9.168445e+02
2.492113e+02
8.579219e+02
2.996616e+02
9.243592e+02
3.660989e+02
8.562570e+02
4.310453e+02
9.130447e+02
4.878330e+02
8.888704e+02
5.017310e+02
9.405725e+02
5.534331e+02
9.420029e+02
5.527117e+02
9.921580e+02
6.028669e+02
1.004431e+03
5.937216e+02
1.051809e+03
6.410989e+02
1.068311e+03
6.282435e+02
1.111414e+03
6.713467e+02
1.128590e+03
6.577601e+02
1.166271e+03
6.954408e+02
1.182158e+03
6.828363e+02
1.213654e+03
7.143318e+02
1.227148e+03
7.036475e+02
1.251983e+03
7.284823e+02
1.262465e+03
7.202118e+02
1.280356e+03
7.381028e+02
1.287485e+03
7.324953e+02
1.298273e+03
7.432827e+02
1.301874e+03
7.404558e+02
1.305478e+03
7.440597e+02
</DataArray>
<DataArray type="Float32" Name="V2" format="ascii">
4.887158e-01
5.600000e-01
4.917700e-01
5.629143e-01
4.917700e-01
5.629143e-01
5.008687e-01
5.716384e-01
5.008687e-01
5.716384e-01
5.159684e-01
5.861159e-01
5.159684e-01
5.861159e-01
5.369715e-01
6.062531e-01
5.369715e-01
6.062531e-01
5.637421e-01
6.319197e-01
5.637421e-01
6.319197e-01
5.961066e-01
6.629489e-01
5.961066e-01
6.629489e-01
6.338545e-01
6.991386e-01
6.338545e-01
6.991386e-01
6.767393e-01
7.402525e-01
6.767393e-01
7.402525e-01
7.244792e-01
7.860214e-01
7.244792e-01
7.860214e-01
7.767586e-01
8.361451e-01
7.767586e-01
8.361451e-01
8.332285e-01
8.902949e-01
8.332285e-01
8.902949e-01
8.935068e-01
9.481178e-01
8.935068e-01
9.481178e-01
9.571772e-01
1.009242e+00
9.571772e-01
1.009242e+00
1.023785e+00
1.073290e+00
1.023785e+00
1.073290e+00
1.092825e+00
1.139895e+00
1.092825e+00
1.139895e+00
1.163717e+00
1.208739e+00
1.163717e+00
1.208739e+00
1.235740e+00
1.279612e+00
1.235740e+00
1.279612e+00
1.307833e+00
1.352449e+00
1.307833e+00
1.352449e+00
1.378876e+00
1.425733e+00
1.378876e+00
1.425733e+00
1.443848e+00
1.491206e+00
1.443848e+00
1.491206e+00
1.500187e+00
1.549397e+00
1.500187e+00
1.549397e+00
1.548913e+00
1.600201e+00
1.548913e+00
1.600201e+00
1.590615e+00
1.643682e+00
1.590615e+00
1.643682e+00
1.625794e+00
1.680215e+00
1.625794e+00
1.680215e+00
1.654869e+00
1.710250e+00
1.654869e+00
1.710250e+00
1.678191e+00
1.734220e+00
1.678191e+00
1.734220e+00
1.696041e+00
1.752487e+00
1.696041e+00
1.752487e+00
1.708638e+00
1.765337e+00
1.708638e+00
1.765337e+00
1.716135e+00
1.772967e+00
1.716135e+00
1.772967e+00
1.718624e+00
1.775498e+00
</DataArray>
<DataArray type="Float32" Name="V3" format="ascii">
0.000000e+00
0.000000e+00
4.466752e-02
4.094382e-02
4.466752e-02
4.094382e-02
8.881281e-02
8.138323e-02
8.881281e-02
8.138323e-02
1.319134e-01
1.208161e-01
1.319134e-01
1.208161e-01
1.734539e-01
1.587456e-01
1.734539e-01
1.587456e-01
2.129271e-01
1.946826e-01
2.129271e-01
1.946826e-01
2.498363e-01
2.281488e-01
2.498363e-01
2.281488e-01
2.836984e-01
2.586785e-01
2.836984e-01
2.586785e-01
3.140457e-01
2.858220e-01
3.140457e-01
2.858220e-01
3.404287e-01
3.091479e-01
3.404287e-01
3.091479e-01
3.624180e-01
3.282458e-01
3.624180e-01
3.282458e-01
3.796060e-01
3.427300e-01
3.796060e-01
3.427300e-01
3.916079e-01
3.522432e-01
3.916079e-01
3.522432e-01
3.980619e-01
3.564616e-01
3.980619e-01
3.564616e-01
3.986275e-01
3.551022e-01
3.986275e-01
3.551022e-01
3.929802e-01
3.479349e-01
3.929802e-01
3.479349e-01
3.808006e-01
3.347989e-01
3.808006e-01
3.347989e-01
3.617514e-01
3.156240e-01
3.617514e-01
3.156240e-01
3.354625e-01
2.904136e-01
3.354625e-01
2.904136e-01
3.019180e-01
2.581587e-01
3.019180e-01
2.581587e-01
2.684259e-01
2.274017e-01
2.684259e-01
2.274017e-01
2.375363e-01
2.006492e-01
2.375363e-01
2.006492e-01
2.084588e-01
1.763551e-01
2.084588e-01
1.763551e-01
1.807229e-01
1.535069e-01
1.807229e-01
1.535069e-01
1.539150e-01
1.314032e-01
1.539150e-01
1.314032e-01
1.277169e-01
1.096041e-01
1.277169e-01
1.096041e-01
1.018975e-01
8.785754e-02
1.018975e-01
8.785754e-02
7.629875e-02
6.603993e-02
7.629875e-02
6.603993e-02
5.081937e-02
4.411123e-02
5.081937e-02
4.411123e-02
2.539823e-02
2.208375e-02
2.539823e-02
2.208375e-02
0.000000e+00
0.000000e+00
</DataArray>
<DataArray type="Float32" Name="V4" format="ascii">
8.500000e-01
1.000000e+00
8.500000e-01
1.000000e+00
8.500000e-01
1.000000e+00
8.500000e-01
1.000000e+00
8.500000e-01
1.000000e+00
8.500000e-01
1.000000e+00
8.500000e-01
1.000000e+00
8.500000e-01
1.000000e+00
8.500000e-01
1.000000e+00
8.500000e-01
1.000000e+00
8.500000e-01
1.000000e+00
8.500000e-01
1.000000e+00
8.500000e-01
1.000000e+00
8.500000e-01
1.000000e+00
8.500000e-01
1.000000e+00
8.500000e-01
1.000000e+00
8.500000e-01
1.000000e+00
8.500000e-01
1.000000e+00
8.500000e-01
1.000000e+00
8.500000e-01
1.000000e+00
8.500000e-01
1.000000e+00
8.500000e-01
1.000000e+00
8.500000e-01
1.000000e+00
8.500000e-01
1.000000e+00
8.500000e-01
1.000000e+00
8.500000e-01
1.000000e+00
8.500000e-01
1.000000e+00
8.500000e-01
1.000000e+00
8.500000e-01
1.000000e+00
8.500000e-01
1.000000e+00
8.500000e-01
1.000000e+00
8.500000e-01
1.000000e+00
8.500000e-01
1.000000e+00
8.500000e-01
1.000000e+00
8.500000e-01
1.000000e+00
8.500000e-01
1.000000e+00
8.500000e-01
1.000000e+00
8.500000e-01
1.000000e+00
8.500000e-01
1.000000e+00
8.500000e-01
1.000000e+00
8.500000e-01
1.000000e+00
8.500000e-01
1.000000e+00
8.500000e-01
1.000000e+00
8.500000e-01
1.000000e+00
8.500000e-01
1.000000e+00
8.500000e-01
1.000000e+00
8.500000e-01
1.000000e+00
8.500000e-01
1.000000e+00
8.500000e-01
1.000000e+00
8.500000e-01
1.000000e+00
8.500000e-01
1.000000e+00
8.500000e-01
1.000000e+00
8.500000e-01
1.000000e+00
8.500000e-01
1.000000e+00
8.500000e-01
1.000000e+00
8.500000e-01
1.000000e+00
8.500000e-01
1.000000e+00
8.500000e-01
1.000000e+00
8.500000e-01
1.000000e+00
8.500000e-01
1.000000e+00
</DataArray>
<DataArray type="Float32" Name="V5" format="ascii">
0.000000e+00
0.000000e+00
5.235988e-02
5.235988e-02
5.235988e-02
5.235988e-02
1.047198e-01
1.047198e-01
1.047198e-01
1.047198e-01
1.570796e-01
1.570796e-01
1.570796e-01
1.570796e-01
2.094395e-01
2.094395e-01
2.094395e-01
2.094395e-01
2.617994e-01
2.617994e-01
2.617994e-01
2.617994e-01
3.141593e-01
3.141593e-01
3.141593e-01
3.141593e-01
3.665191e-01
3.665191e-01
3.665191e-01
3.665191e-01
4.188790e-01
4.188790e-01
4.188790e-01
4.188790e-01
4.712389e-01
4.712389e-01
4.712389e-01
4.712389e-01
5.235988e-01
5.235988e-01
5.235988e-01
5.235988e-01
5.759587e-01
5.759587e-01
5.759587e-01
5.759587e-01
6.283185e-01
6.283185e-01
6.283185e-01
6.283185e-01
6.806784e-01
6.806784e-01
6.806784e-01
6.806784e-01
7.330383e-01
7.330383e-01
7.330383e-01
7.330383e-01
7.853982e-01
7.853982e-01
7.853982e-01
7.853982e-01
8.377580e-01
8.377580e-01
8.377580e-01
8.377580e-01
8.901179e-01
8.901179e-01
8.901179e-01
8.901179e-01
9.424778e-01
9.424778e-01
9.424778e-01
9.424778e-01
9.948377e-01
9.948377e-01
9.948377e-01
9.948377e-01
1.047198e+00
1.047198e+00
1.047198e+00
1.047198e+00
1.099557e+00
1.099557e+00
1.099557e+00
1.099557e+00
1.151917e+00
1.151917e+00
1.151917e+00
1.151917e+00
1.204277e+00
1.204277e+00
1.204277e+00
1.204277e+00
1.256637e+00
1.256637e+00
1.256637e+00
1.256637e+00
1.308997e+00
1.308997e+00
1.308997e+00
1.308997e+00
1.361357e+00
1.361357e+00
1.361357e+00
1.361357e+00
1.413717e+00
1.413717e+00
1.413717e+00
1.413717e+00
1.466077e+00
1.466077e+00
1.466077e+00
1.466077e+00
1.518436e+00
1.518436e+00
1.518436e+00
1.518436e+00
1.570796e+00
1.570796e+00
</DataArray>
</PointData>
</Piece></UnstructuredGrid>
</VTKFile>
