<?xml version="1.0"?>
<VTKFile type="UnstructuredGrid" version="0.1" byte_order="LittleEndian" compressor="vtkZLibDataCompressor">
<UnstructuredGrid>
<Piece NumberOfPoints="120" NumberOfCells="30">
<Points>
<DataArray type="Float32" NumberOfComponents="3" format="ascii">
0.000000e+00 7.666110e-01 0.000000e+00
0.000000e+00 8.700000e-01 0.000000e+00
5.837426e-02 7.666624e-01 0.000000e+00
5.847888e-02 8.700000e-01 0.000000e+00
5.837426e-02 7.666624e-01 0.000000e+00
5.847888e-02 8.700000e-01 0.000000e+00
1.167252e-01 7.667711e-01 0.000000e+00
1.169692e-01 8.700000e-01 0.000000e+00
1.167252e-01 7.667711e-01 0.000000e+00
1.169692e-01 8.700000e-01 0.000000e+00
1.750238e-01 7.669571e-01 0.000000e+00
1.754921e-01 8.700000e-01 0.000000e+00
1.750238e-01 7.669571e-01 0.000000e+00
1.754921e-01 8.700000e-01 0.000000e+00
2.332342e-01 7.672272e-01 0.000000e+00
2.340833e-01 8.700000e-01 0.000000e+00
2.332342e-01 7.672272e-01 0.000000e+00
2.340833e-01 8.700000e-01 0.000000e+00
2.913039e-01 7.675911e-01 0.000000e+00
2.928056e-01 8.700000e-01 0.000000e+00
2.913039e-01 7.675911e-01 0.000000e+00
2.928056e-01 8.700000e-01 0.000000e+00
3.491482e-01 7.680575e-01 0.000000e+00
3.517611e-01 8.700000e-01 0.000000e+00
3.491482e-01 7.680575e-01 0.000000e+00
3.517611e-01 8.700000e-01 0.000000e+00
4.066224e-01 7.686204e-01 0.000000e+00
4.110986e-01 8.700000e-01 0.000000e+00
4.066224e-01 7.686204e-01 0.000000e+00
4.110986e-01 8.700000e-01 0.000000e+00
4.634746e-01 7.692108e-01 0.000000e+00
4.709942e-01 8.700000e-01 0.000000e+00
4.634746e-01 7.692108e-01 0.000000e+00
4.709942e-01 8.700000e-01 0.000000e+00
5.193057e-01 7.695177e-01 0.000000e+00
5.315304e-01 8.700000e-01 0.000000e+00
5.193057e-01 7.695177e-01 0.000000e+00
5.315304e-01 8.700000e-01 0.000000e+00
5.740007e-01 7.690393e-01 0.000000e+00
5.917616e-01 8.695318e-01 0.000000e+00
5.740007e-01 7.690393e-01 0.000000e+00
5.917616e-01 8.695318e-01 0.000000e+00
6.274093e-01 7.637234e-01 0.000000e+00
6.510271e-01 8.623306e-01 0.000000e+00
6.274093e-01 7.637234e-01 0.000000e+00
6.510271e-01 8.623306e-01 0.000000e+00
6.789687e-01 7.528154e-01 0.000000e+00
7.098295e-01 8.485631e-01 0.000000e+00
6.789687e-01 7.528154e-01 0.000000e+00
7.098295e-01 8.485631e-01 0.000000e+00
7.287281e-01 7.363941e-01 0.000000e+00
7.672421e-01 8.286479e-01 0.000000e+00
7.287281e-01 7.363941e-01 0.000000e+00
7.672421e-01 8.286479e-01 0.000000e+00
7.765188e-01 7.150382e-01 0.000000e+00
8.225170e-01 8.032044e-01 0.000000e+00
7.765188e-01 7.150382e-01 0.000000e+00
8.225170e-01 8.032044e-01 0.000000e+00
8.221462e-01 6.892078e-01 0.000000e+00
8.751544e-01 7.728078e-01 0.000000e+00
8.221462e-01 6.892078e-01 0.000000e+00
8.751544e-01 7.728078e-01 0.000000e+00
8.654401e-01 6.593499e-01 0.000000e+00
9.248559e-01 7.380267e-01 0.000000e+00
8.654401e-01 6.593499e-01 0.000000e+00
9.248559e-01 7.380267e-01 0.000000e+00
9.062504e-01 6.258711e-01 0.000000e+00
9.714387e-01 6.993719e-01 0.000000e+00
9.062504e-01 6.258711e-01 0.000000e+00
9.714387e-01 6.993719e-01 0.000000e+00
9.444492e-01 5.891459e-01 0.000000e+00
1.014790e+00 6.572967e-01 0.000000e+00
9.444492e-01 5.891459e-01 0.000000e+00
1.014790e+00 6.572967e-01 0.000000e+00
9.799268e-01 5.495178e-01 0.000000e+00
1.054839e+00 6.122001e-01 0.000000e+00
9.799268e-01 5.495178e-01 0.000000e+00
1.054839e+00 6.122001e-01 0.000000e+00
1.012590e+00 5.073032e-01 0.000000e+00
1.091534e+00 5.644362e-01 0.000000e+00
1.012590e+00 5.073032e-01 0.000000e+00
1.091534e+00 5.644362e-01 0.000000e+00
1.042358e+00 4.627952e-01 0.000000e+00
1.124839e+00 5.143224e-01 0.000000e+00
1.042358e+00 4.627952e-01 0.000000e+00
1.124839e+00 5.143224e-01 0.000000e+00
1.069163e+00 4.162671e-01 0.000000e+00
1.154723e+00 4.621477e-01 0.000000e+00
1.069163e+00 4.162671e-01 0.000000e+00
1.154723e+00 4.621477e-01 0.000000e+00
1.092946e+00 3.679761e-01 0.000000e+00
1.181159e+00 4.081794e-01 0.000000e+00
1.092946e+00 3.679761e-01 0.000000e+00
1.181159e+00 4.081794e-01 0.000000e+00
1.113657e+00 3.181660e-01 0.000000e+00
1.204125e+00 3.526677e-01 0.000000e+00
1.113657e+00 3.181660e-01 0.000000e+00
1.204125e+00 3.526677e-01 0.000000e+00
1.131252e+00 2.670703e-01 0.000000e+00
1.223596e+00 2.958509e-01 0.000000e+00
1.131252e+00 2.670703e-01 0.000000e+00
1.223596e+00 2.958509e-01 0.000000e+00
1.145696e+00 2.149141e-01 0.000000e+00
1.239556e+00 2.379577e-01 0.000000e+00
1.145696e+00 2.149141e-01 0.000000e+00
1.239556e+00 2.379577e-01 0.000000e+00
1.156960e+00 1.619163e-01 0.000000e+00
1.251987e+00 1.792102e-01 0.000000e+00
1.156960e+00 1.619163e-01 0.000000e+00
1.251987e+00 1.792102e-01 0.000000e+00
1.165021e+00 1.082911e-01 0.000000e+00
1.260876e+00 1.198258e-01 0.000000e+00
1.165021e+00 1.082911e-01 0.000000e+00
1.260876e+00 1.198258e-01 0.000000e+00
1.169865e+00 5.424943e-02 0.000000e+00
1.266214e+00 6.001839e-02 0.000000e+00
1.169865e+00 5.424943e-02 0.000000e+00
1.266214e+00 6.001839e-02 0.000000e+00
1.171480e+00 5.736260e-12 0.000000e+00
1.267994e+00 6.208840e-12 0.000000e+00
</DataArray>
</Points>
<Cells>
<DataArray type="Int32" Name="connectivity" format="ascii">
0 1 3 2
4 5 7 6
8 9 11 10
12 13 15 14
16 17 19 18
20 21 23 22
24 25 27 26
28 29 31 30
32 33 35 34
36 37 39 38
40 41 43 42
44 45 47 46
48 49 51 50
52 53 55 54
56 57 59 58
60 61 63 62
64 65 67 66
68 69 71 70
72 73 75 74
76 77 79 78
80 81 83 82
84 85 87 86
88 89 91 90
92 93 95 94
96 97 99 98
100 101 103 102
104 105 107 106
108 109 111 110
112 113 115 114
116 117 119 118
</DataArray>
<DataArray type="Int32" Name="offsets" format="ascii">
4
8
12
16
20
24
28
32
36
40
44
48
52
56
60
64
68
72
76
80
84
88
92
96
100
104
108
112
116
120
</DataArray>
<DataArray type="UInt8" Name="types" format="ascii">
9
9
9
9
9
9
9
9
9
9
9
9
9
9
9
9
9
9
9
9
9
9
9
9
9
9
9
9
9
9
</DataArray>
</Cells>
<PointData>
<DataArray type="Float32" Name="V1" format="ascii">
1.242866e+02
-2.946717e+01
1.244240e+02
-2.932979e+01
1.245077e+02
-2.938922e+01
1.248689e+02
-2.902796e+01
1.250047e+02
-2.912382e+01
1.256268e+02
-2.850176e+01
1.256945e+02
-2.856976e+01
1.266015e+02
-2.766279e+01
1.263941e+02
-2.757387e+01
1.276274e+02
-2.634065e+01
1.267723e+02
-2.585016e+01
1.283999e+02
-2.422259e+01
1.262472e+02
-2.286931e+01
1.283822e+02
-2.073432e+01
1.238277e+02
-1.764390e+01
1.267013e+02
-1.477033e+01
1.178868e+02
-8.331201e+00
1.223001e+02
-3.917900e+00
1.060230e+02
1.014235e+01
1.135210e+02
1.764034e+01
9.703553e+01
3.186335e+01
1.022134e+02
3.704120e+01
9.379788e+01
4.231178e+01
9.713991e+01
4.565380e+01
9.330948e+01
4.866702e+01
9.638593e+01
5.174348e+01
9.504548e+01
5.289788e+01
9.794497e+01
5.579737e+01
9.797125e+01
5.580624e+01
1.006440e+02
5.847901e+01
1.014371e+02
5.783329e+01
1.038477e+02
6.024395e+01
1.050295e+02
5.927148e+01
1.071672e+02
6.140918e+01
1.085081e+02
6.031140e+01
1.103809e+02
6.218417e+01
1.117416e+02
6.108012e+01
1.133676e+02
6.270608e+01
1.146671e+02
6.166191e+01
1.160686e+02
6.306339e+01
1.172627e+02
6.211275e+01
1.184625e+02
6.331258e+01
1.195299e+02
6.246987e+01
1.205494e+02
6.348939e+01
1.214824e+02
6.275801e+01
1.223407e+02
6.361622e+01
1.231396e+02
6.299376e+01
1.238528e+02
6.370699e+01
1.245219e+02
6.318831e+01
1.251038e+02
6.377022e+01
1.256490e+02
6.334931e+01
1.261107e+02
6.381105e+01
1.265381e+02
6.348209e+01
1.268885e+02
6.383247e+01
1.272038e+02
6.359039e+01
1.274495e+02
6.383605e+01
1.276571e+02
6.367692e+01
1.278026e+02
6.382249e+01
1.279057e+02
6.374361e+01
1.279539e+02
6.379183e+01
</DataArray>
<DataArray type="Float32" Name="V2" format="ascii">
7.666110e-01
8.700000e-01
7.686668e-01
8.718682e-01
7.686668e-01
8.718682e-01
7.747717e-01
8.774607e-01
7.747717e-01
8.774607e-01
7.848943e-01
8.867419e-01
7.848943e-01
8.867419e-01
7.989536e-01
8.996571e-01
7.989536e-01
8.996571e-01
8.168311e-01
9.161391e-01
8.168311e-01
9.161391e-01
8.383589e-01
9.361193e-01
8.383589e-01
9.361193e-01
8.632894e-01
9.595395e-01
8.632894e-01
9.595395e-01
8.912211e-01
9.863551e-01
8.912211e-01
9.863551e-01
9.214052e-01
1.016485e+00
9.214052e-01
1.016485e+00
9.530079e-01
1.048917e+00
9.530079e-01
1.048917e+00
9.822239e-01
1.077786e+00
9.822239e-01
1.077786e+00
1.008128e+00
1.103729e+00
1.008128e+00
1.103729e+00
1.030889e+00
1.126821e+00
1.030889e+00
1.126821e+00
1.050969e+00
1.147268e+00
1.050969e+00
1.147268e+00
1.068689e+00
1.165285e+00
1.068689e+00
1.165285e+00
1.084338e+00
1.181138e+00
1.084338e+00
1.181138e+00
1.098162e+00
1.195079e+00
1.098162e+00
1.195079e+00
1.110367e+00
1.207332e+00
1.110367e+00
1.207332e+00
1.121125e+00
1.218090e+00
1.121125e+00
1.218090e+00
1.130580e+00
1.227514e+00
1.130580e+00
1.227514e+00
1.138853e+00
1.235736e+00
1.138853e+00
1.235736e+00
1.146040e+00
1.242864e+00
1.146040e+00
1.242864e+00
1.152224e+00
1.248986e+00
1.152224e+00
1.248986e+00
1.157469e+00
1.254171e+00
1.157469e+00
1.254171e+00
1.161828e+00
1.258475e+00
1.161828e+00
1.258475e+00
1.165343e+00
1.261943e+00
1.165343e+00
1.261943e+00
1.168045e+00
1.264608e+00
1.168045e+00
1.264608e+00
1.169959e+00
1.266494e+00
1.169959e+00
1.266494e+00
1.171101e+00
1.267620e+00
1.171101e+00
1.267620e+00
1.171480e+00
1.267994e+00
</DataArray>
<DataArray type="Float32" Name="V3" format="ascii">
0.000000e+00
0.000000e+00
1.817025e-02
1.286646e-02
1.817025e-02
1.286646e-02
3.593631e-02
2.538867e-02
3.593631e-02
2.538867e-02
5.289040e-02
3.723356e-02
5.289040e-02
3.723356e-02
6.862197e-02
4.808483e-02
6.862197e-02
4.808483e-02
8.271071e-02
5.765588e-02
8.271071e-02
5.765588e-02
9.471684e-02
6.569990e-02
9.471684e-02
6.569990e-02
1.041658e-01
7.201348e-02
1.041658e-01
7.201348e-02
1.105388e-01
7.641369e-02
1.105388e-01
7.641369e-02
1.133510e-01
7.862534e-02
1.133510e-01
7.862534e-02
1.125796e-01
7.771471e-02
1.125796e-01
7.771471e-02
1.102361e-01
7.633839e-02
1.102361e-01
7.633839e-02
1.068035e-01
7.549125e-02
1.068035e-01
7.549125e-02
1.029002e-01
7.477404e-02
1.029002e-01
7.477404e-02
9.861197e-02
7.380063e-02
9.861197e-02
7.380063e-02
9.400168e-02
7.236996e-02
9.400168e-02
7.236996e-02
8.910000e-02
7.038868e-02
8.910000e-02
7.038868e-02
8.392867e-02
6.783213e-02
8.392867e-02
6.783213e-02
7.850426e-02
6.471469e-02
7.850426e-02
6.471469e-02
7.284199e-02
6.107219e-02
7.284199e-02
6.107219e-02
6.695743e-02
5.695099e-02
6.695743e-02
5.695099e-02
6.086715e-02
5.240161e-02
6.086715e-02
5.240161e-02
5.458894e-02
4.747517e-02
5.458894e-02
4.747517e-02
4.814165e-02
4.222143e-02
4.814165e-02
4.222143e-02
4.154501e-02
3.668800e-02
4.154501e-02
3.668800e-02
3.481944e-02
3.092006e-02
3.481944e-02
3.092006e-02
2.798586e-02
2.496049e-02
2.798586e-02
2.496049e-02
2.106555e-02
1.885011e-02
2.106555e-02
1.885011e-02
1.408001e-02
1.262811e-02
1.408001e-02
1.262811e-02
7.050903e-03
6.332378e-03
7.050903e-03
6.332378e-03
0.000000e+00
0.000000e+00
</DataArray>
<DataArray type="Float32" Name="V4" format="ascii">
8.500000e-01
1.000000e+00
8.500000e-01
1.000000e+00
8.500000e-01
1.000000e+00
8.500000e-01
1.000000e+00
8.500000e-01
1.000000e+00
8.500000e-01
1.000000e+00
8.500000e-01
1.000000e+00
8.500000e-01
1.000000e+00
8.500000e-01
1.000000e+00
8.500000e-01
1.000000e+00
8.500000e-01
1.000000e+00
8.500000e-01
1.000000e+00
8.500000e-01
1.000000e+00
8.500000e-01
1.000000e+00
8.500000e-01
1.000000e+00
8.500000e-01
1.000000e+00
8.500000e-01
1.000000e+00
8.500000e-01
1.000000e+00
8.500000e-01
1.000000e+00
8.500000e-01
1.000000e+00
8.500000e-01
1.000000e+00
8.500000e-01
1.000000e+00
8.500000e-01
1.000000e+00
8.500000e-01
1.000000e+00
8.500000e-01
1.000000e+00
8.500000e-01
1.000000e+00
8.500000e-01
1.000000e+00
8.500000e-01
1.000000e+00
8.500000e-01
1.000000e+00
8.500000e-01
1.000000e+00
8.500000e-01
1.000000e+00
8.500000e-01
1.000000e+00
8.500000e-01
1.000000e+00
8.500000e-01
1.000000e+00
8.500000e-01
1.000000e+00
8.500000e-01
1.000000e+00
8.500000e-01
1.000000e+00
8.500000e-01
1.000000e+00
8.500000e-01
1.000000e+00
8.500000e-01
1.000000e+00
8.500000e-01
1.000000e+00
8.500000e-01
1.000000e+00
8.500000e-01
1.000000e+00
8.500000e-01
1.000000e+00
8.500000e-01
1.000000e+00
8.500000e-01
1.000000e+00
8.500000e-01
1.000000e+00
8.500000e-01
1.000000e+00
8.500000e-01
1.000000e+00
8.500000e-01
1.000000e+00
8.500000e-01
1.000000e+00
8.500000e-01
1.000000e+00
8.500000e-01
1.000000e+00
8.500000e-01
1.000000e+00
8.500000e-01
1.000000e+00
8.500000e-01
1.000000e+00
8.500000e-01
1.000000e+00
8.500000e-01
1.000000e+00
8.500000e-01
1.000000e+00
8.500000e-01
1.000000e+00
</DataArray>
<DataArray type="Float32" Name="V5" format="ascii">
0.000000e+00
0.000000e+00
5.235988e-02
5.235988e-02
5.235988e-02
5.235988e-02
1.047198e-01
1.047198e-01
1.047198e-01
1.047198e-01
1.570796e-01
1.570796e-01
1.570796e-01
1.570796e-01
2.094395e-01
2.094395e-01
2.094395e-01
2.094395e-01
2.617994e-01
2.617994e-01
2.617994e-01
2.617994e-01
3.141593e-01
3.141593e-01
3.141593e-01
3.141593e-01
3.665191e-01
3.665191e-01
3.665191e-01
3.665191e-01
4.188790e-01
4.188790e-01
4.188790e-01
4.188790e-01
4.712389e-01
4.712389e-01
4.712389e-01
4.712389e-01
5.235988e-01
5.235988e-01
5.235988e-01
5.235988e-01
5.759587e-01
5.759587e-01
5.759587e-01
5.759587e-01
6.283185e-01
6.283185e-01
6.283185e-01
6.283185e-01
6.806784e-01
6.806784e-01
6.806784e-01
6.806784e-01
7.330383e-01
7.330383e-01
7.330383e-01
7.330383e-01
7.853982e-01
7.853982e-01
7.853982e-01
7.853982e-01
8.377580e-01
8.377580e-01
8.377580e-01
8.377580e-01
8.901179e-01
8.901179e-01
8.901179e-01
8.901179e-01
9.424778e-01
9.424778e-01
9.424778e-01
9.424778e-01
9.948377e-01
9.948377e-01
9.948377e-01
9.948377e-01
1.047198e+00
1.047198e+00
1.047198e+00
1.047198e+00
1.099557e+00
1.099557e+00
1.099557e+00
1.099557e+00
1.151917e+00
1.151917e+00
1.151917e+00
1.151917e+00
1.204277e+00
1.204277e+00
1.204277e+00
1.204277e+00
1.256637e+00
1.256637e+00
1.256637e+00
1.256637e+00
1.308997e+00
1.308997e+00
1.308997e+00
1.308997e+00
1.361357e+00
1.361357e+00
1.361357e+00
1.361357e+00
1.413717e+00
1.413717e+00
1.413717e+00
1.413717e+00
1.466077e+00
1.466077e+00
1.466077e+00
1.466077e+00
1.518436e+00
1.518436e+00
1.518436e+00
1.518436e+00
1.570796e+00
1.570796e+00
</DataArray>
</PointData>
</Piece></UnstructuredGrid>
</VTKFile>
