<?xml version="1.0"?>
<VTKFile type="UnstructuredGrid" version="0.1" byte_order="LittleEndian" compressor="vtkZLibDataCompressor">
<UnstructuredGrid>
<Piece NumberOfPoints="120" NumberOfCells="30">
<Points>
<DataArray type="Float32" NumberOfComponents="3" format="ascii">
0.000000e+00 9.532721e-01 0.000000e+00
0.000000e+00 1.060000e+00 0.000000e+00
5.658032e-02 9.533963e-01 0.000000e+00
5.871111e-02 1.060000e+00 0.000000e+00
5.658032e-02 9.533963e-01 0.000000e+00
5.871111e-02 1.060000e+00 0.000000e+00
1.129358e-01 9.535951e-01 0.000000e+00
1.176438e-01 1.060000e+00 0.000000e+00
1.129358e-01 9.535951e-01 0.000000e+00
1.176438e-01 1.060000e+00 0.000000e+00
1.687873e-01 9.537627e-01 0.000000e+00
1.769832e-01 1.060000e+00 0.000000e+00
1.687873e-01 9.537627e-01 0.000000e+00
1.769832e-01 1.060000e+00 0.000000e+00
2.238527e-01 9.535168e-01 0.000000e+00
2.366180e-01 1.060000e+00 0.000000e+00
2.238527e-01 9.535168e-01 0.000000e+00
2.366180e-01 1.060000e+00 0.000000e+00
2.783183e-01 9.514623e-01 0.000000e+00
2.952411e-01 1.057871e+00 0.000000e+00
2.783183e-01 9.514623e-01 0.000000e+00
2.952411e-01 1.057871e+00 0.000000e+00
3.316430e-01 9.447053e-01 0.000000e+00
3.538846e-01 1.049600e+00 0.000000e+00
3.316430e-01 9.447053e-01 0.000000e+00
3.538846e-01 1.049600e+00 0.000000e+00
3.840041e-01 9.339055e-01 0.000000e+00
4.122705e-01 1.036950e+00 0.000000e+00
3.840041e-01 9.339055e-01 0.000000e+00
4.122705e-01 1.036950e+00 0.000000e+00
4.353411e-01 9.192060e-01 0.000000e+00
4.698179e-01 1.020055e+00 0.000000e+00
4.353411e-01 9.192060e-01 0.000000e+00
4.698179e-01 1.020055e+00 0.000000e+00
4.855287e-01 9.009156e-01 0.000000e+00
5.261528e-01 9.992172e-01 0.000000e+00
4.855287e-01 9.009156e-01 0.000000e+00
5.261528e-01 9.992172e-01 0.000000e+00
5.344228e-01 8.792593e-01 0.000000e+00
5.810011e-01 9.746897e-01 0.000000e+00
5.344228e-01 8.792593e-01 0.000000e+00
5.810011e-01 9.746897e-01 0.000000e+00
5.818801e-01 8.544446e-01 0.000000e+00
6.341571e-01 9.467099e-01 0.000000e+00
5.818801e-01 8.544446e-01 0.000000e+00
6.341571e-01 9.467099e-01 0.000000e+00
6.277607e-01 8.266595e-01 0.000000e+00
6.854529e-01 9.154944e-01 0.000000e+00
6.277607e-01 8.266595e-01 0.000000e+00
6.854529e-01 9.154944e-01 0.000000e+00
6.719310e-01 7.960802e-01 0.000000e+00
7.347440e-01 8.812436e-01 0.000000e+00
6.719310e-01 7.960802e-01 0.000000e+00
7.347440e-01 8.812436e-01 0.000000e+00
7.142639e-01 7.628737e-01 0.000000e+00
7.819011e-01 8.441449e-01 0.000000e+00
7.142639e-01 7.628737e-01 0.000000e+00
7.819011e-01 8.441449e-01 0.000000e+00
7.546395e-01 7.272007e-01 0.000000e+00
8.268060e-01 8.043762e-01 0.000000e+00
7.546395e-01 7.272007e-01 0.000000e+00
8.268060e-01 8.043762e-01 0.000000e+00
7.929451e-01 6.892173e-01 0.000000e+00
8.693485e-01 7.621087e-01 0.000000e+00
7.929451e-01 6.892173e-01 0.000000e+00
8.693485e-01 7.621087e-01 0.000000e+00
8.290751e-01 6.490770e-01 0.000000e+00
9.094255e-01 7.175090e-01 0.000000e+00
8.290751e-01 6.490770e-01 0.000000e+00
9.094255e-01 7.175090e-01 0.000000e+00
8.629309e-01 6.069311e-01 0.000000e+00
9.469404e-01 6.707409e-01 0.000000e+00
8.629309e-01 6.069311e-01 0.000000e+00
9.469404e-01 6.707409e-01 0.000000e+00
8.944208e-01 5.629302e-01 0.000000e+00
9.818023e-01 6.219669e-01 0.000000e+00
8.944208e-01 5.629302e-01 0.000000e+00
9.818023e-01 6.219669e-01 0.000000e+00
9.234603e-01 5.172248e-01 0.000000e+00
1.013927e+00 5.713490e-01 0.000000e+00
9.234603e-01 5.172248e-01 0.000000e+00
1.013927e+00 5.713490e-01 0.000000e+00
9.499717e-01 4.699655e-01 0.000000e+00
1.043236e+00 5.190495e-01 0.000000e+00
9.499717e-01 4.699655e-01 0.000000e+00
1.043236e+00 5.190495e-01 0.000000e+00
9.738843e-01 4.213038e-01 0.000000e+00
1.069658e+00 4.652318e-01 0.000000e+00
9.738843e-01 4.213038e-01 0.000000e+00
1.069658e+00 4.652318e-01 0.000000e+00
9.951348e-01 3.713918e-01 0.000000e+00
1.093128e+00 4.100599e-01 0.000000e+00
9.951348e-01 3.713918e-01 0.000000e+00
1.093128e+00 4.100599e-01 0.000000e+00
1.013667e+00 3.203829e-01 0.000000e+00
1.113588e+00 3.536995e-01 0.000000e+00
1.013667e+00 3.203829e-01 0.000000e+00
1.113588e+00 3.536995e-01 0.000000e+00
1.029431e+00 2.684314e-01 0.000000e+00
1.130988e+00 2.963173e-01 0.000000e+00
1.029431e+00 2.684314e-01 0.000000e+00
1.130988e+00 2.963173e-01 0.000000e+00
1.042387e+00 2.156925e-01 0.000000e+00
1.145283e+00 2.380816e-01 0.000000e+00
1.042387e+00 2.156925e-01 0.000000e+00
1.145283e+00 2.380816e-01 0.000000e+00
1.052498e+00 1.623227e-01 0.000000e+00
1.156439e+00 1.791614e-01 0.000000e+00
1.052498e+00 1.623227e-01 0.000000e+00
1.156439e+00 1.791614e-01 0.000000e+00
1.059740e+00 1.084788e-01 0.000000e+00
1.164428e+00 1.197270e-01 0.000000e+00
1.059740e+00 1.084788e-01 0.000000e+00
1.164428e+00 1.197270e-01 0.000000e+00
1.064093e+00 5.431854e-02 0.000000e+00
1.169229e+00 5.994937e-02 0.000000e+00
1.064093e+00 5.431854e-02 0.000000e+00
1.169229e+00 5.994937e-02 0.000000e+00
1.065545e+00 5.217540e-12 0.000000e+00
1.170830e+00 5.733080e-12 0.000000e+00
</DataArray>
</Points>
<Cells>
<DataArray type="Int32" Name="connectivity" format="ascii">
0 1 3 2
4 5 7 6
8 9 11 10
12 13 15 14
16 17 19 18
20 21 23 22
24 25 27 26
28 29 31 30
32 33 35 34
36 37 39 38
40 41 43 42
44 45 47 46
48 49 51 50
52 53 55 54
56 57 59 58
60 61 63 62
64 65 67 66
68 69 71 70
72 73 75 74
76 77 79 78
80 81 83 82
84 85 87 86
88 89 91 90
92 93 95 94
96 97 99 98
100 101 103 102
104 105 107 106
108 109 111 110
112 113 115 114
116 117 119 118
</DataArray>
<DataArray type="Int32" Name="offsets" format="ascii">
4
8
12
16
20
24
28
32
36
40
44
48
52
56
60
64
68
72
76
80
84
88
92
96
100
104
108
112
116
120
</DataArray>
<DataArray type="UInt8" Name="types" format="ascii">
9
9
9
9
9
9
9
9
9
9
9
9
9
9
9
9
9
9
9
9
9
9
9
9
9
9
9
9
9
9
</DataArray>
</Cells>
<PointData>
<DataArray type="Float32" Name="V1" format="ascii">
9.312563e+01
-1.491092e+01
9.350986e+01
-1.452670e+01
9.136802e+01
-1.323701e+01
9.206794e+01
-1.253708e+01
8.743079e+01
-9.367703e+00
8.884970e+01
-7.948794e+00
8.040613e+01
-1.699494e+00
8.348219e+01
1.376572e+00
7.075924e+01
1.323838e+01
7.534266e+01
1.782180e+01
6.742371e+01
2.190972e+01
6.878656e+01
2.327256e+01
6.522430e+01
2.578976e+01
6.619688e+01
2.676234e+01
6.429760e+01
2.821043e+01
6.511575e+01
2.902858e+01
6.419773e+01
2.975261e+01
6.489981e+01
3.045470e+01
6.452819e+01
3.075212e+01
6.513059e+01
3.135452e+01
6.507362e+01
3.140307e+01
6.558933e+01
3.191879e+01
6.570568e+01
3.182978e+01
6.614638e+01
3.227048e+01
6.635202e+01
3.211105e+01
6.672837e+01
3.248740e+01
6.697297e+01
3.229767e+01
6.729441e+01
3.261910e+01
6.754848e+01
3.242242e+01
6.782317e+01
3.269711e+01
6.806992e+01
3.250659e+01
6.830483e+01
3.274150e+01
6.853527e+01
3.256406e+01
6.873626e+01
3.276505e+01
6.894609e+01
3.260386e+01
6.911806e+01
3.277583e+01
6.930580e+01
3.263194e+01
6.945282e+01
3.277897e+01
6.961856e+01
3.265219e+01
6.974403e+01
3.277766e+01
6.988873e+01
3.266717e+01
6.999546e+01
3.277389e+01
7.012047e+01
3.267858e+01
7.021078e+01
3.276889e+01
7.031758e+01
3.268756e+01
7.039340e+01
3.276338e+01
7.048345e+01
3.269487e+01
7.054635e+01
3.275777e+01
7.062099e+01
3.270104e+01
7.067225e+01
3.275229e+01
7.073265e+01
3.270642e+01
7.077329e+01
3.274706e+01
7.082043e+01
3.271127e+01
7.085125e+01
3.274209e+01
7.088593e+01
3.271577e+01
7.090753e+01
3.273738e+01
7.093033e+01
3.272008e+01
7.094312e+01
3.273288e+01
7.095442e+01
3.272431e+01
7.095866e+01
3.272855e+01
</DataArray>
<DataArray type="Float32" Name="V2" format="ascii">
9.532721e-01
1.060000e+00
9.550509e-01
1.061620e+00
9.550509e-01
1.061620e+00
9.601762e-01
1.066490e+00
9.601762e-01
1.066490e+00
9.684245e-01
1.074636e+00
9.684245e-01
1.074636e+00
9.792217e-01
1.086032e+00
9.792217e-01
1.086032e+00
9.910761e-01
1.098239e+00
9.910761e-01
1.098239e+00
1.000951e+00
1.107586e+00
1.000951e+00
1.107586e+00
1.009491e+00
1.115821e+00
1.009491e+00
1.115821e+00
1.016806e+00
1.122958e+00
1.016806e+00
1.122958e+00
1.023147e+00
1.129177e+00
1.023147e+00
1.129177e+00
1.028672e+00
1.134607e+00
1.028672e+00
1.134607e+00
1.033512e+00
1.139364e+00
1.033512e+00
1.139364e+00
1.037770e+00
1.143550e+00
1.037770e+00
1.143550e+00
1.041530e+00
1.147244e+00
1.041530e+00
1.147244e+00
1.044861e+00
1.150516e+00
1.044861e+00
1.150516e+00
1.047819e+00
1.153420e+00
1.047819e+00
1.153420e+00
1.050449e+00
1.156002e+00
1.050449e+00
1.156002e+00
1.052790e+00
1.158299e+00
1.052790e+00
1.158299e+00
1.054871e+00
1.160342e+00
1.054871e+00
1.160342e+00
1.056718e+00
1.162156e+00
1.056718e+00
1.162156e+00
1.058352e+00
1.163761e+00
1.058352e+00
1.163761e+00
1.059791e+00
1.165174e+00
1.059791e+00
1.165174e+00
1.061047e+00
1.166408e+00
1.061047e+00
1.166408e+00
1.062133e+00
1.167475e+00
1.062133e+00
1.167475e+00
1.063058e+00
1.168385e+00
1.063058e+00
1.168385e+00
1.063829e+00
1.169143e+00
1.063829e+00
1.169143e+00
1.064453e+00
1.169756e+00
1.064453e+00
1.169756e+00
1.064933e+00
1.170228e+00
1.064933e+00
1.170228e+00
1.065274e+00
1.170564e+00
1.065274e+00
1.170564e+00
1.065478e+00
1.170764e+00
1.065478e+00
1.170764e+00
1.065545e+00
1.170830e+00
</DataArray>
<DataArray type="Float32" Name="V3" format="ascii">
0.000000e+00
0.000000e+00
6.605876e-03
3.154530e-03
6.605876e-03
3.154530e-03
1.263931e-02
6.199132e-03
1.263931e-02
6.199132e-03
1.750787e-02
8.983721e-03
1.750787e-02
8.983721e-03
2.071370e-02
1.106096e-02
2.071370e-02
1.106096e-02
2.257827e-02
1.138395e-02
2.257827e-02
1.138395e-02
2.348124e-02
1.221993e-02
2.348124e-02
1.221993e-02
2.381694e-02
1.327786e-02
2.381694e-02
1.327786e-02
2.382912e-02
1.430648e-02
2.382912e-02
1.430648e-02
2.360217e-02
1.517046e-02
2.360217e-02
1.517046e-02
2.319407e-02
1.581681e-02
2.319407e-02
1.581681e-02
2.264180e-02
1.623374e-02
2.264180e-02
1.623374e-02
2.197080e-02
1.642896e-02
2.197080e-02
1.642896e-02
2.119895e-02
1.641879e-02
2.119895e-02
1.641879e-02
2.033939e-02
1.622263e-02
2.033939e-02
1.622263e-02
1.940221e-02
1.586026e-02
1.940221e-02
1.586026e-02
1.839556e-02
1.535054e-02
1.839556e-02
1.535054e-02
1.732631e-02
1.471081e-02
1.732631e-02
1.471081e-02
1.620047e-02
1.395678e-02
1.620047e-02
1.395678e-02
1.502346e-02
1.310256e-02
1.502346e-02
1.310256e-02
1.380031e-02
1.216078e-02
1.380031e-02
1.216078e-02
1.253574e-02
1.114279e-02
1.253574e-02
1.114279e-02
1.123428e-02
1.005883e-02
1.123428e-02
1.005883e-02
9.900281e-03
8.918222e-03
9.900281e-03
8.918222e-03
8.538004e-03
7.729498e-03
8.538004e-03
7.729498e-03
7.151610e-03
6.500572e-03
7.151610e-03
6.500572e-03
5.745200e-03
5.238848e-03
5.745200e-03
5.238848e-03
4.322828e-03
3.951329e-03
4.322828e-03
3.951329e-03
2.888510e-03
2.644717e-03
2.888510e-03
2.644717e-03
1.446241e-03
1.325494e-03
1.446241e-03
1.325494e-03
0.000000e+00
0.000000e+00
</DataArray>
<DataArray type="Float32" Name="V4" format="ascii">
8.500000e-01
1.000000e+00
8.500000e-01
1.000000e+00
8.500000e-01
1.000000e+00
8.500000e-01
1.000000e+00
8.500000e-01
1.000000e+00
8.500000e-01
1.000000e+00
8.500000e-01
1.000000e+00
8.500000e-01
1.000000e+00
8.500000e-01
1.000000e+00
8.500000e-01
1.000000e+00
8.500000e-01
1.000000e+00
8.500000e-01
1.000000e+00
8.500000e-01
1.000000e+00
8.500000e-01
1.000000e+00
8.500000e-01
1.000000e+00
8.500000e-01
1.000000e+00
8.500000e-01
1.000000e+00
8.500000e-01
1.000000e+00
8.500000e-01
1.000000e+00
8.500000e-01
1.000000e+00
8.500000e-01
1.000000e+00
8.500000e-01
1.000000e+00
8.500000e-01
1.000000e+00
8.500000e-01
1.000000e+00
8.500000e-01
1.000000e+00
8.500000e-01
1.000000e+00
8.500000e-01
1.000000e+00
8.500000e-01
1.000000e+00
8.500000e-01
1.000000e+00
8.500000e-01
1.000000e+00
8.500000e-01
1.000000e+00
8.500000e-01
1.000000e+00
8.500000e-01
1.000000e+00
8.500000e-01
1.000000e+00
8.500000e-01
1.000000e+00
8.500000e-01
1.000000e+00
8.500000e-01
1.000000e+00
8.500000e-01
1.000000e+00
8.500000e-01
1.000000e+00
8.500000e-01
1.000000e+00
8.500000e-01
1.000000e+00
8.500000e-01
1.000000e+00
8.500000e-01
1.000000e+00
8.500000e-01
1.000000e+00
8.500000e-01
1.000000e+00
8.500000e-01
1.000000e+00
8.500000e-01
1.000000e+00
8.500000e-01
1.000000e+00
8.500000e-01
1.000000e+00
8.500000e-01
1.000000e+00
8.500000e-01
1.000000e+00
8.500000e-01
1.000000e+00
8.500000e-01
1.000000e+00
8.500000e-01
1.000000e+00
8.500000e-01
1.000000e+00
8.500000e-01
1.000000e+00
8.500000e-01
1.000000e+00
8.500000e-01
1.000000e+00
8.500000e-01
1.000000e+00
8.500000e-01
1.000000e+00
</DataArray>
<DataArray type="Float32" Name="V5" format="ascii">
0.000000e+00
0.000000e+00
5.235988e-02
5.235988e-02
5.235988e-02
5.235988e-02
1.047198e-01
1.047198e-01
1.047198e-01
1.047198e-01
1.570796e-01
1.570796e-01
1.570796e-01
1.570796e-01
2.094395e-01
2.094395e-01
2.094395e-01
2.094395e-01
2.617994e-01
2.617994e-01
2.617994e-01
2.617994e-01
3.141593e-01
3.141593e-01
3.141593e-01
3.141593e-01
3.665191e-01
3.665191e-01
3.665191e-01
3.665191e-01
4.188790e-01
4.188790e-01
4.188790e-01
4.188790e-01
4.712389e-01
4.712389e-01
4.712389e-01
4.712389e-01
5.235988e-01
5.235988e-01
5.235988e-01
5.235988e-01
5.759587e-01
5.759587e-01
5.759587e-01
5.759587e-01
6.283185e-01
6.283185e-01
6.283185e-01
6.283185e-01
6.806784e-01
6.806784e-01
6.806784e-01
6.806784e-01
7.330383e-01
7.330383e-01
7.330383e-01
7.330383e-01
7.853982e-01
7.853982e-01
7.853982e-01
7.853982e-01
8.377580e-01
8.377580e-01
8.377580e-01
8.377580e-01
8.901179e-01
8.901179e-01
8.901179e-01
8.901179e-01
9.424778e-01
9.424778e-01
9.424778e-01
9.424778e-01
9.948377e-01
9.948377e-01
9.948377e-01
9.948377e-01
1.047198e+00
1.047198e+00
1.047198e+00
1.047198e+00
1.099557e+00
1.099557e+00
1.099557e+00
1.099557e+00
1.151917e+00
1.151917e+00
1.151917e+00
1.151917e+00
1.204277e+00
1.204277e+00
1.204277e+00
1.204277e+00
1.256637e+00
1.256637e+00
1.256637e+00
1.256637e+00
1.308997e+00
1.308997e+00
1.308997e+00
1.308997e+00
1.361357e+00
1.361357e+00
1.361357e+00
1.361357e+00
1.413717e+00
1.413717e+00
1.413717e+00
1.413717e+00
1.466077e+00
1.466077e+00
1.466077e+00
1.466077e+00
1.518436e+00
1.518436e+00
1.518436e+00
1.518436e+00
1.570796e+00
1.570796e+00
</DataArray>
</PointData>
</Piece></UnstructuredGrid>
</VTKFile>
