<?xml version="1.0"?>
<VTKFile type="UnstructuredGrid" version="0.1" byte_order="LittleEndian" compressor="vtkZLibDataCompressor">
<UnstructuredGrid>
<Piece NumberOfPoints="120" NumberOfCells="30">
<Points>
<DataArray type="Float32" NumberOfComponents="3" format="ascii">
0.000000e+00 8.536427e-01 0.000000e+00
0.000000e+00 9.600000e-01 0.000000e+00
5.741233e-02 8.537173e-01 0.000000e+00
5.788422e-02 9.600000e-01 0.000000e+00
5.741233e-02 8.537173e-01 0.000000e+00
5.788422e-02 9.600000e-01 0.000000e+00
1.147709e-01 8.538798e-01 0.000000e+00
1.158483e-01 9.600000e-01 0.000000e+00
1.147709e-01 8.538798e-01 0.000000e+00
1.158483e-01 9.600000e-01 0.000000e+00
1.720048e-01 8.541573e-01 0.000000e+00
1.739926e-01 9.600000e-01 0.000000e+00
1.720048e-01 8.541573e-01 0.000000e+00
1.739926e-01 9.600000e-01 0.000000e+00
2.290081e-01 8.545506e-01 0.000000e+00
2.324437e-01 9.600000e-01 0.000000e+00
2.290081e-01 8.545506e-01 0.000000e+00
2.324437e-01 9.600000e-01 0.000000e+00
2.856048e-01 8.550306e-01 0.000000e+00
2.913558e-01 9.600000e-01 0.000000e+00
2.856048e-01 8.550306e-01 0.000000e+00
2.913558e-01 9.600000e-01 0.000000e+00
3.415063e-01 8.554494e-01 0.000000e+00
3.508687e-01 9.600000e-01 0.000000e+00
3.415063e-01 8.554494e-01 0.000000e+00
3.508687e-01 9.600000e-01 0.000000e+00
3.963760e-01 8.554189e-01 0.000000e+00
4.108275e-01 9.600000e-01 0.000000e+00
3.963760e-01 8.554189e-01 0.000000e+00
4.108275e-01 9.600000e-01 0.000000e+00
4.504211e-01 8.533961e-01 0.000000e+00
4.696642e-01 9.575195e-01 0.000000e+00
4.504211e-01 8.533961e-01 0.000000e+00
4.696642e-01 9.575195e-01 0.000000e+00
5.029558e-01 8.459328e-01 0.000000e+00
5.283680e-01 9.479447e-01 0.000000e+00
5.029558e-01 8.459328e-01 0.000000e+00
5.283680e-01 9.479447e-01 0.000000e+00
5.541374e-01 8.336312e-01 0.000000e+00
5.865306e-01 9.330395e-01 0.000000e+00
5.541374e-01 8.336312e-01 0.000000e+00
5.865306e-01 9.330395e-01 0.000000e+00
6.038666e-01 8.166975e-01 0.000000e+00
6.433726e-01 9.130164e-01 0.000000e+00
6.038666e-01 8.166975e-01 0.000000e+00
6.433726e-01 9.130164e-01 0.000000e+00
6.519889e-01 7.955609e-01 0.000000e+00
6.983949e-01 8.883371e-01 0.000000e+00
6.519889e-01 7.955609e-01 0.000000e+00
6.983949e-01 8.883371e-01 0.000000e+00
6.983394e-01 7.705644e-01 0.000000e+00
7.512589e-01 8.594185e-01 0.000000e+00
6.983394e-01 7.705644e-01 0.000000e+00
7.512589e-01 8.594185e-01 0.000000e+00
7.427663e-01 7.420322e-01 0.000000e+00
8.017408e-01 8.266577e-01 0.000000e+00
7.427663e-01 7.420322e-01 0.000000e+00
8.017408e-01 8.266577e-01 0.000000e+00
7.851293e-01 7.102602e-01 0.000000e+00
8.496815e-01 7.904117e-01 0.000000e+00
7.851293e-01 7.102602e-01 0.000000e+00
8.496815e-01 7.904117e-01 0.000000e+00
8.253015e-01 6.755222e-01 0.000000e+00
8.949615e-01 7.510016e-01 0.000000e+00
8.253015e-01 6.755222e-01 0.000000e+00
8.949615e-01 7.510016e-01 0.000000e+00
8.631675e-01 6.380724e-01 0.000000e+00
9.374855e-01 7.087170e-01 0.000000e+00
8.631675e-01 6.380724e-01 0.000000e+00
9.374855e-01 7.087170e-01 0.000000e+00
8.986235e-01 5.981485e-01 0.000000e+00
9.771729e-01 6.638215e-01 0.000000e+00
8.986235e-01 5.981485e-01 0.000000e+00
9.771729e-01 6.638215e-01 0.000000e+00
9.315755e-01 5.559744e-01 0.000000e+00
1.013952e+00 6.165586e-01 0.000000e+00
9.315755e-01 5.559744e-01 0.000000e+00
1.013952e+00 6.165586e-01 0.000000e+00
9.619388e-01 5.117632e-01 0.000000e+00
1.047760e+00 5.671558e-01 0.000000e+00
9.619388e-01 5.117632e-01 0.000000e+00
1.047760e+00 5.671558e-01 0.000000e+00
9.896371e-01 4.657188e-01 0.000000e+00
1.078536e+00 5.158290e-01 0.000000e+00
9.896371e-01 4.657188e-01 0.000000e+00
1.078536e+00 5.158290e-01 0.000000e+00
1.014602e+00 4.180382e-01 0.000000e+00
1.106227e+00 4.627852e-01 0.000000e+00
1.014602e+00 4.180382e-01 0.000000e+00
1.106227e+00 4.627852e-01 0.000000e+00
1.036772e+00 3.689127e-01 0.000000e+00
1.130784e+00 4.082250e-01 0.000000e+00
1.036772e+00 3.689127e-01 0.000000e+00
1.130784e+00 4.082250e-01 0.000000e+00
1.056095e+00 3.185296e-01 0.000000e+00
1.152160e+00 3.523445e-01 0.000000e+00
1.056095e+00 3.185296e-01 0.000000e+00
1.152160e+00 3.523445e-01 0.000000e+00
1.072524e+00 2.670731e-01 0.000000e+00
1.170317e+00 2.953363e-01 0.000000e+00
1.072524e+00 2.670731e-01 0.000000e+00
1.170317e+00 2.953363e-01 0.000000e+00
1.086019e+00 2.147249e-01 0.000000e+00
1.185221e+00 2.373908e-01 0.000000e+00
1.086019e+00 2.147249e-01 0.000000e+00
1.185221e+00 2.373908e-01 0.000000e+00
1.096548e+00 1.616650e-01 0.000000e+00
1.196843e+00 1.786969e-01 0.000000e+00
1.096548e+00 1.616650e-01 0.000000e+00
1.196843e+00 1.786969e-01 0.000000e+00
1.104087e+00 1.080723e-01 0.000000e+00
1.205160e+00 1.194424e-01 0.000000e+00
1.104087e+00 1.080723e-01 0.000000e+00
1.205160e+00 1.194424e-01 0.000000e+00
1.108618e+00 5.412480e-02 0.000000e+00
1.210157e+00 5.981453e-02 0.000000e+00
1.108618e+00 5.412480e-02 0.000000e+00
1.210157e+00 5.981453e-02 0.000000e+00
1.110129e+00 5.435850e-12 0.000000e+00
1.211824e+00 5.933800e-12 0.000000e+00
</DataArray>
</Points>
<Cells>
<DataArray type="Int32" Name="connectivity" format="ascii">
0 1 3 2
4 5 7 6
8 9 11 10
12 13 15 14
16 17 19 18
20 21 23 22
24 25 27 26
28 29 31 30
32 33 35 34
36 37 39 38
40 41 43 42
44 45 47 46
48 49 51 50
52 53 55 54
56 57 59 58
60 61 63 62
64 65 67 66
68 69 71 70
72 73 75 74
76 77 79 78
80 81 83 82
84 85 87 86
88 89 91 90
92 93 95 94
96 97 99 98
100 101 103 102
104 105 107 106
108 109 111 110
112 113 115 114
116 117 119 118
</DataArray>
<DataArray type="Int32" Name="offsets" format="ascii">
4
8
12
16
20
24
28
32
36
40
44
48
52
56
60
64
68
72
76
80
84
88
92
96
100
104
108
112
116
120
</DataArray>
<DataArray type="UInt8" Name="types" format="ascii">
9
9
9
9
9
9
9
9
9
9
9
9
9
9
9
9
9
9
9
9
9
9
9
9
9
9
9
9
9
9
</DataArray>
</Cells>
<PointData>
<DataArray type="Float32" Name="V1" format="ascii">
1.060965e+02
-2.438853e+01
1.062596e+02
-2.422541e+01
1.059194e+02
-2.405633e+01
1.062875e+02
-2.368822e+01
1.054925e+02
-2.322486e+01
1.061342e+02
-2.258313e+01
1.045141e+02
-2.158922e+01
1.054904e+02
-2.061290e+01
1.024078e+02
-1.860944e+01
1.038324e+02
-1.718489e+01
9.822131e+01
-1.329206e+01
1.004204e+02
-1.109293e+01
9.041836e+01
-3.478990e+00
9.441907e+01
5.217188e-01
7.896897e+01
1.520375e+01
8.488227e+01
2.111705e+01
7.496516e+01
2.648057e+01
7.723595e+01
2.875136e+01
7.275377e+01
3.202350e+01
7.459384e+01
3.386357e+01
7.240003e+01
3.561830e+01
7.407967e+01
3.729793e+01
7.325036e+01
3.799452e+01
7.477935e+01
3.952350e+01
7.471692e+01
3.958850e+01
7.608568e+01
4.095727e+01
7.645670e+01
4.066297e+01
7.766469e+01
4.187096e+01
7.825926e+01
4.139353e+01
7.931421e+01
4.244848e+01
8.000509e+01
4.189528e+01
8.091990e+01
4.281009e+01
8.163037e+01
4.224462e+01
8.241986e+01
4.303410e+01
8.310549e+01
4.249206e+01
8.378446e+01
4.317103e+01
8.442107e+01
4.267102e+01
8.500324e+01
4.325320e+01
8.557913e+01
4.280355e+01
8.607672e+01
4.330113e+01
8.658773e+01
4.290421e+01
8.701127e+01
4.332775e+01
8.745758e+01
4.298263e+01
8.781605e+01
4.334110e+01
8.820013e+01
4.304522e+01
8.850103e+01
4.334613e+01
8.882643e+01
4.309625e+01
8.907600e+01
4.334582e+01
8.934655e+01
4.313861e+01
8.954987e+01
4.334194e+01
8.976923e+01
4.317428e+01
8.993040e+01
4.333544e+01
9.010182e+01
4.320464e+01
9.022403e+01
4.332684e+01
9.035020e+01
4.323068e+01
9.043583e+01
4.331632e+01
9.051880e+01
4.325314e+01
9.056953e+01
4.330387e+01
9.061067e+01
4.327255e+01
9.062747e+01
4.328936e+01
</DataArray>
<DataArray type="Float32" Name="V2" format="ascii">
8.536427e-01
9.600000e-01
8.555521e-01
9.617138e-01
8.555521e-01
9.617138e-01
8.611990e-01
9.668505e-01
8.611990e-01
9.668505e-01
8.705487e-01
9.753993e-01
8.705487e-01
9.753993e-01
8.834900e-01
9.873495e-01
8.834900e-01
9.873495e-01
8.998161e-01
1.002697e+00
8.998161e-01
1.002697e+00
9.191120e-01
1.021439e+00
9.191120e-01
1.021439e+00
9.406508e-01
1.043465e+00
9.406508e-01
1.043465e+00
9.628189e-01
1.065767e+00
9.628189e-01
1.065767e+00
9.820688e-01
1.084499e+00
9.820688e-01
1.084499e+00
9.990145e-01
1.101301e+00
9.990145e-01
1.101301e+00
1.013829e+00
1.116126e+00
1.013829e+00
1.116126e+00
1.026852e+00
1.129186e+00
1.026852e+00
1.129186e+00
1.038320e+00
1.140676e+00
1.038320e+00
1.140676e+00
1.048445e+00
1.150796e+00
1.048445e+00
1.150796e+00
1.057400e+00
1.159721e+00
1.057400e+00
1.159721e+00
1.065331e+00
1.167604e+00
1.065331e+00
1.167604e+00
1.072359e+00
1.174573e+00
1.072359e+00
1.174573e+00
1.078585e+00
1.180734e+00
1.078585e+00
1.180734e+00
1.084090e+00
1.186174e+00
1.084090e+00
1.186174e+00
1.088945e+00
1.190965e+00
1.088945e+00
1.190965e+00
1.093205e+00
1.195164e+00
1.093205e+00
1.195164e+00
1.096916e+00
1.198821e+00
1.096916e+00
1.198821e+00
1.100117e+00
1.201972e+00
1.100117e+00
1.201972e+00
1.102837e+00
1.204650e+00
1.102837e+00
1.204650e+00
1.105102e+00
1.206878e+00
1.105102e+00
1.206878e+00
1.106930e+00
1.208677e+00
1.106930e+00
1.208677e+00
1.108338e+00
1.210062e+00
1.108338e+00
1.210062e+00
1.109336e+00
1.211043e+00
1.109336e+00
1.211043e+00
1.109931e+00
1.211629e+00
1.109931e+00
1.211629e+00
1.110129e+00
1.211824e+00
</DataArray>
<DataArray type="Float32" Name="V3" format="ascii">
0.000000e+00
0.000000e+00
1.265354e-02
7.562378e-03
1.265354e-02
7.562378e-03
2.488740e-02
1.486632e-02
2.488740e-02
1.486632e-02
3.626753e-02
2.167341e-02
3.626753e-02
2.167341e-02
4.633270e-02
2.776899e-02
4.633270e-02
2.776899e-02
5.457481e-02
3.296177e-02
5.457481e-02
3.296177e-02
6.044334e-02
3.703963e-02
6.044334e-02
3.703963e-02
6.349417e-02
3.950731e-02
6.349417e-02
3.950731e-02
6.437268e-02
3.960133e-02
6.437268e-02
3.960133e-02
6.409146e-02
4.042149e-02
6.409146e-02
4.042149e-02
6.308144e-02
4.143064e-02
6.308144e-02
4.143064e-02
6.163982e-02
4.231331e-02
6.163982e-02
4.231331e-02
5.985112e-02
4.286192e-02
5.985112e-02
4.286192e-02
5.777976e-02
4.298823e-02
5.777976e-02
4.298823e-02
5.546646e-02
4.266760e-02
5.546646e-02
4.266760e-02
5.294046e-02
4.191009e-02
5.294046e-02
4.191009e-02
5.022361e-02
4.074319e-02
5.022361e-02
4.074319e-02
4.733352e-02
3.920222e-02
4.733352e-02
3.920222e-02
4.428538e-02
3.732491e-02
4.428538e-02
3.732491e-02
4.109301e-02
3.514858e-02
4.109301e-02
3.514858e-02
3.776946e-02
3.270869e-02
3.776946e-02
3.270869e-02
3.432733e-02
3.003831e-02
3.432733e-02
3.003831e-02
3.077892e-02
2.716794e-02
3.077892e-02
2.716794e-02
2.713636e-02
2.412569e-02
2.713636e-02
2.412569e-02
2.341165e-02
2.093748e-02
2.341165e-02
2.093748e-02
1.961670e-02
1.762741e-02
1.961670e-02
1.762741e-02
1.576331e-02
1.421801e-02
1.576331e-02
1.421801e-02
1.186326e-02
1.073058e-02
1.186326e-02
1.073058e-02
7.928245e-03
7.185426e-03
7.928245e-03
7.185426e-03
3.969941e-03
3.602180e-03
3.969941e-03
3.602180e-03
0.000000e+00
0.000000e+00
</DataArray>
<DataArray type="Float32" Name="V4" format="ascii">
8.500000e-01
1.000000e+00
8.500000e-01
1.000000e+00
8.500000e-01
1.000000e+00
8.500000e-01
1.000000e+00
8.500000e-01
1.000000e+00
8.500000e-01
1.000000e+00
8.500000e-01
1.000000e+00
8.500000e-01
1.000000e+00
8.500000e-01
1.000000e+00
8.500000e-01
1.000000e+00
8.500000e-01
1.000000e+00
8.500000e-01
1.000000e+00
8.500000e-01
1.000000e+00
8.500000e-01
1.000000e+00
8.500000e-01
1.000000e+00
8.500000e-01
1.000000e+00
8.500000e-01
1.000000e+00
8.500000e-01
1.000000e+00
8.500000e-01
1.000000e+00
8.500000e-01
1.000000e+00
8.500000e-01
1.000000e+00
8.500000e-01
1.000000e+00
8.500000e-01
1.000000e+00
8.500000e-01
1.000000e+00
8.500000e-01
1.000000e+00
8.500000e-01
1.000000e+00
8.500000e-01
1.000000e+00
8.500000e-01
1.000000e+00
8.500000e-01
1.000000e+00
8.500000e-01
1.000000e+00
8.500000e-01
1.000000e+00
8.500000e-01
1.000000e+00
8.500000e-01
1.000000e+00
8.500000e-01
1.000000e+00
8.500000e-01
1.000000e+00
8.500000e-01
1.000000e+00
8.500000e-01
1.000000e+00
8.500000e-01
1.000000e+00
8.500000e-01
1.000000e+00
8.500000e-01
1.000000e+00
8.500000e-01
1.000000e+00
8.500000e-01
1.000000e+00
8.500000e-01
1.000000e+00
8.500000e-01
1.000000e+00
8.500000e-01
1.000000e+00
8.500000e-01
1.000000e+00
8.500000e-01
1.000000e+00
8.500000e-01
1.000000e+00
8.500000e-01
1.000000e+00
8.500000e-01
1.000000e+00
8.500000e-01
1.000000e+00
8.500000e-01
1.000000e+00
8.500000e-01
1.000000e+00
8.500000e-01
1.000000e+00
8.500000e-01
1.000000e+00
8.500000e-01
1.000000e+00
8.500000e-01
1.000000e+00
8.500000e-01
1.000000e+00
8.500000e-01
1.000000e+00
8.500000e-01
1.000000e+00
</DataArray>
<DataArray type="Float32" Name="V5" format="ascii">
0.000000e+00
0.000000e+00
5.235988e-02
5.235988e-02
5.235988e-02
5.235988e-02
1.047198e-01
1.047198e-01
1.047198e-01
1.047198e-01
1.570796e-01
1.570796e-01
1.570796e-01
1.570796e-01
2.094395e-01
2.094395e-01
2.094395e-01
2.094395e-01
2.617994e-01
2.617994e-01
2.617994e-01
2.617994e-01
3.141593e-01
3.141593e-01
3.141593e-01
3.141593e-01
3.665191e-01
3.665191e-01
3.665191e-01
3.665191e-01
4.188790e-01
4.188790e-01
4.188790e-01
4.188790e-01
4.712389e-01
4.712389e-01
4.712389e-01
4.712389e-01
5.235988e-01
5.235988e-01
5.235988e-01
5.235988e-01
5.759587e-01
5.759587e-01
5.759587e-01
5.759587e-01
6.283185e-01
6.283185e-01
6.283185e-01
6.283185e-01
6.806784e-01
6.806784e-01
6.806784e-01
6.806784e-01
7.330383e-01
7.330383e-01
7.330383e-01
7.330383e-01
7.853982e-01
7.853982e-01
7.853982e-01
7.853982e-01
8.377580e-01
8.377580e-01
8.377580e-01
8.377580e-01
8.901179e-01
8.901179e-01
8.901179e-01
8.901179e-01
9.424778e-01
9.424778e-01
9.424778e-01
9.424778e-01
9.948377e-01
9.948377e-01
9.948377e-01
9.948377e-01
1.047198e+00
1.047198e+00
1.047198e+00
1.047198e+00
1.099557e+00
1.099557e+00
1.099557e+00
1.099557e+00
1.151917e+00
1.151917e+00
1.151917e+00
1.151917e+00
1.204277e+00
1.204277e+00
1.204277e+00
1.204277e+00
1.256637e+00
1.256637e+00
1.256637e+00
1.256637e+00
1.308997e+00
1.308997e+00
1.308997e+00
1.308997e+00
1.361357e+00
1.361357e+00
1.361357e+00
1.361357e+00
1.413717e+00
1.413717e+00
1.413717e+00
1.413717e+00
1.466077e+00
1.466077e+00
1.466077e+00
1.466077e+00
1.518436e+00
1.518436e+00
1.518436e+00
1.518436e+00
1.570796e+00
1.570796e+00
</DataArray>
</PointData>
</Piece></UnstructuredGrid>
</VTKFile>
