<?xml version="1.0"?>
<VTKFile type="UnstructuredGrid" version="0.1" byte_order="LittleEndian" compressor="vtkZLibDataCompressor">
<UnstructuredGrid>
<Piece NumberOfPoints="120" NumberOfCells="30">
<Points>
<DataArray type="Float32" NumberOfComponents="3" format="ascii">
0.000000e+00 8.341003e-01 0.000000e+00
0.000000e+00 9.400000e-01 0.000000e+00
5.758555e-02 8.341677e-01 0.000000e+00
5.793279e-02 9.400000e-01 0.000000e+00
5.758555e-02 8.341677e-01 0.000000e+00
5.793279e-02 9.400000e-01 0.000000e+00
1.151280e-01 8.343143e-01 0.000000e+00
1.159245e-01 9.400000e-01 0.000000e+00
1.151280e-01 8.343143e-01 0.000000e+00
1.159245e-01 9.400000e-01 0.000000e+00
1.725711e-01 8.345664e-01 0.000000e+00
1.740526e-01 9.400000e-01 0.000000e+00
1.725711e-01 8.345664e-01 0.000000e+00
1.740526e-01 9.400000e-01 0.000000e+00
2.298335e-01 8.349302e-01 0.000000e+00
2.324204e-01 9.400000e-01 0.000000e+00
2.298335e-01 8.349302e-01 0.000000e+00
2.324204e-01 9.400000e-01 0.000000e+00
2.867810e-01 8.353979e-01 0.000000e+00
2.911661e-01 9.400000e-01 0.000000e+00
2.867810e-01 8.353979e-01 0.000000e+00
2.911661e-01 9.400000e-01 0.000000e+00
3.431879e-01 8.359028e-01 0.000000e+00
3.504442e-01 9.400000e-01 0.000000e+00
3.431879e-01 8.359028e-01 0.000000e+00
3.504442e-01 9.400000e-01 0.000000e+00
3.987055e-01 8.361472e-01 0.000000e+00
4.103261e-01 9.400000e-01 0.000000e+00
3.987055e-01 8.361472e-01 0.000000e+00
4.103261e-01 9.400000e-01 0.000000e+00
4.532181e-01 8.357382e-01 0.000000e+00
4.700126e-01 9.397521e-01 0.000000e+00
4.532181e-01 8.357382e-01 0.000000e+00
4.700126e-01 9.397521e-01 0.000000e+00
5.066490e-01 8.310645e-01 0.000000e+00
5.288418e-01 9.335179e-01 0.000000e+00
5.066490e-01 8.310645e-01 0.000000e+00
5.288418e-01 9.335179e-01 0.000000e+00
5.585071e-01 8.213661e-01 0.000000e+00
5.874478e-01 9.213831e-01 0.000000e+00
5.585071e-01 8.213661e-01 0.000000e+00
5.874478e-01 9.213831e-01 0.000000e+00
6.088879e-01 8.066371e-01 0.000000e+00
6.450475e-01 9.036991e-01 0.000000e+00
6.088879e-01 8.066371e-01 0.000000e+00
6.450475e-01 9.036991e-01 0.000000e+00
6.576587e-01 7.873733e-01 0.000000e+00
7.009864e-01 8.809691e-01 0.000000e+00
6.576587e-01 7.873733e-01 0.000000e+00
7.009864e-01 8.809691e-01 0.000000e+00
7.046476e-01 7.639503e-01 0.000000e+00
7.548102e-01 8.536412e-01 0.000000e+00
7.046476e-01 7.639503e-01 0.000000e+00
7.548102e-01 8.536412e-01 0.000000e+00
7.496948e-01 7.367329e-01 0.000000e+00
8.062304e-01 8.221651e-01 0.000000e+00
7.496948e-01 7.367329e-01 0.000000e+00
8.062304e-01 8.221651e-01 0.000000e+00
7.926522e-01 7.060524e-01 0.000000e+00
8.550534e-01 7.869493e-01 0.000000e+00
7.926522e-01 7.060524e-01 0.000000e+00
8.550534e-01 7.869493e-01 0.000000e+00
8.333866e-01 6.722149e-01 0.000000e+00
9.011435e-01 7.483609e-01 0.000000e+00
8.333866e-01 6.722149e-01 0.000000e+00
9.011435e-01 7.483609e-01 0.000000e+00
8.717787e-01 6.355030e-01 0.000000e+00
9.443996e-01 7.067285e-01 0.000000e+00
8.717787e-01 6.355030e-01 0.000000e+00
9.443996e-01 7.067285e-01 0.000000e+00
9.077216e-01 5.961793e-01 0.000000e+00
9.847415e-01 6.623479e-01 0.000000e+00
9.077216e-01 5.961793e-01 0.000000e+00
9.847415e-01 6.623479e-01 0.000000e+00
9.411197e-01 5.544894e-01 0.000000e+00
1.022101e+00 6.154885e-01 0.000000e+00
9.411197e-01 5.544894e-01 0.000000e+00
1.022101e+00 6.154885e-01 0.000000e+00
9.718878e-01 5.106647e-01 0.000000e+00
1.056419e+00 5.663990e-01 0.000000e+00
9.718878e-01 5.106647e-01 0.000000e+00
1.056419e+00 5.663990e-01 0.000000e+00
9.999494e-01 4.649249e-01 0.000000e+00
1.087641e+00 5.153121e-01 0.000000e+00
9.999494e-01 4.649249e-01 0.000000e+00
1.087641e+00 5.153121e-01 0.000000e+00
1.025237e+00 4.174805e-01 0.000000e+00
1.115718e+00 4.624487e-01 0.000000e+00
1.025237e+00 4.174805e-01 0.000000e+00
1.115718e+00 4.624487e-01 0.000000e+00
1.047689e+00 3.685345e-01 0.000000e+00
1.140604e+00 4.080207e-01 0.000000e+00
1.047689e+00 3.685345e-01 0.000000e+00
1.140604e+00 4.080207e-01 0.000000e+00
1.067255e+00 3.182842e-01 0.000000e+00
1.162260e+00 3.522332e-01 0.000000e+00
1.067255e+00 3.182842e-01 0.000000e+00
1.162260e+00 3.522332e-01 0.000000e+00
1.083887e+00 2.669225e-01 0.000000e+00
1.180648e+00 2.952869e-01 0.000000e+00
1.083887e+00 2.669225e-01 0.000000e+00
1.180648e+00 2.952869e-01 0.000000e+00
1.097547e+00 2.146388e-01 0.000000e+00
1.195736e+00 2.373788e-01 0.000000e+00
1.097547e+00 2.146388e-01 0.000000e+00
1.195736e+00 2.373788e-01 0.000000e+00
1.108205e+00 1.616201e-01 0.000000e+00
1.207500e+00 1.787035e-01 0.000000e+00
1.108205e+00 1.616201e-01 0.000000e+00
1.207500e+00 1.787035e-01 0.000000e+00
1.115835e+00 1.080516e-01 0.000000e+00
1.215918e+00 1.194541e-01 0.000000e+00
1.115835e+00 1.080516e-01 0.000000e+00
1.215918e+00 1.194541e-01 0.000000e+00
1.120420e+00 5.411718e-02 0.000000e+00
1.220974e+00 5.982254e-02 0.000000e+00
1.120420e+00 5.411718e-02 0.000000e+00
1.220974e+00 5.982254e-02 0.000000e+00
1.121950e+00 5.493730e-12 0.000000e+00
1.222661e+00 5.986870e-12 0.000000e+00
</DataArray>
</Points>
<Cells>
<DataArray type="Int32" Name="connectivity" format="ascii">
0 1 3 2
4 5 7 6
8 9 11 10
12 13 15 14
16 17 19 18
20 21 23 22
24 25 27 26
28 29 31 30
32 33 35 34
36 37 39 38
40 41 43 42
44 45 47 46
48 49 51 50
52 53 55 54
56 57 59 58
60 61 63 62
64 65 67 66
68 69 71 70
72 73 75 74
76 77 79 78
80 81 83 82
84 85 87 86
88 89 91 90
92 93 95 94
96 97 99 98
100 101 103 102
104 105 107 106
108 109 111 110
112 113 115 114
116 117 119 118
</DataArray>
<DataArray type="Int32" Name="offsets" format="ascii">
4
8
12
16
20
24
28
32
36
40
44
48
52
56
60
64
68
72
76
80
84
88
92
96
100
104
108
112
116
120
</DataArray>
<DataArray type="UInt8" Name="types" format="ascii">
9
9
9
9
9
9
9
9
9
9
9
9
9
9
9
9
9
9
9
9
9
9
9
9
9
9
9
9
9
9
</DataArray>
</Cells>
<PointData>
<DataArray type="Float32" Name="V1" format="ascii">
1.091516e+02
-2.555668e+01
1.093020e+02
-2.540618e+01
1.090985e+02
-2.531149e+01
1.094536e+02
-2.495645e+01
1.089572e+02
-2.467596e+01
1.095749e+02
-2.405823e+01
1.084922e+02
-2.341363e+01
1.094224e+02
-2.248341e+01
1.072449e+02
-2.111475e+01
1.085751e+02
-1.978456e+01
1.044389e+02
-1.701075e+01
1.063571e+02
-1.509254e+01
9.883501e+01
-9.716783e+00
1.020175e+02
-6.534312e+00
8.854348e+01
4.682232e+00
9.432165e+01
1.046040e+01
8.030429e+01
2.259671e+01
8.431700e+01
2.660942e+01
7.695504e+01
3.105565e+01
7.922759e+01
3.332819e+01
7.564350e+01
3.606240e+01
7.764375e+01
3.806265e+01
7.611021e+01
3.933053e+01
7.795405e+01
4.117437e+01
7.755302e+01
4.152445e+01
7.922961e+01
4.320104e+01
7.948128e+01
4.300717e+01
8.097930e+01
4.450518e+01
8.158218e+01
4.401899e+01
8.290191e+01
4.533872e+01
8.367281e+01
4.471665e+01
8.482407e+01
4.586791e+01
8.565090e+01
4.520448e+01
8.664839e+01
4.620196e+01
8.746490e+01
4.555160e+01
8.832497e+01
4.641167e+01
8.909375e+01
4.580383e+01
8.983244e+01
4.654252e+01
9.053417e+01
4.599150e+01
9.116620e+01
4.662352e+01
9.179259e+01
4.613464e+01
9.233093e+01
4.667298e+01
9.288020e+01
4.624655e+01
9.333602e+01
4.670237e+01
9.381000e+01
4.633603e+01
9.419273e+01
4.671876e+01
9.459503e+01
4.640899e+01
9.491252e+01
4.672649e+01
9.524742e+01
4.646940e+01
9.550611e+01
4.672810e+01
9.577788e+01
4.651999e+01
9.598295e+01
4.672507e+01
9.619544e+01
4.656266e+01
9.635094e+01
4.671816e+01
9.650739e+01
4.659876e+01
9.661636e+01
4.670773e+01
9.671927e+01
4.662928e+01
9.678382e+01
4.669383e+01
9.683485e+01
4.665495e+01
9.685623e+01
4.667633e+01
</DataArray>
<DataArray type="Float32" Name="V2" format="ascii">
8.341003e-01
9.400000e-01
8.360383e-01
9.417437e-01
8.360383e-01
9.417437e-01
8.417780e-01
9.469680e-01
8.417780e-01
9.469680e-01
8.512876e-01
9.556549e-01
8.512876e-01
9.556549e-01
8.644701e-01
9.677817e-01
8.644701e-01
9.677817e-01
8.811568e-01
9.833296e-01
8.811568e-01
9.833296e-01
9.010417e-01
1.002286e+00
9.010417e-01
1.002286e+00
9.234940e-01
1.024613e+00
9.234940e-01
1.024613e+00
9.478252e-01
1.049678e+00
9.478252e-01
1.049678e+00
9.704977e-01
1.071860e+00
9.704977e-01
1.071860e+00
9.905774e-01
1.091665e+00
9.905774e-01
1.091665e+00
1.008127e+00
1.109224e+00
1.008127e+00
1.109224e+00
1.023560e+00
1.124748e+00
1.023560e+00
1.124748e+00
1.037150e+00
1.138421e+00
1.037150e+00
1.138421e+00
1.049143e+00
1.150461e+00
1.049143e+00
1.150461e+00
1.059744e+00
1.161071e+00
1.059744e+00
1.161071e+00
1.069127e+00
1.170431e+00
1.069127e+00
1.170431e+00
1.077434e+00
1.178695e+00
1.077434e+00
1.178695e+00
1.084788e+00
1.185991e+00
1.084788e+00
1.185991e+00
1.091286e+00
1.192425e+00
1.091286e+00
1.192425e+00
1.097012e+00
1.198085e+00
1.097012e+00
1.198085e+00
1.102033e+00
1.203042e+00
1.102033e+00
1.203042e+00
1.106405e+00
1.207354e+00
1.106405e+00
1.207354e+00
1.110173e+00
1.211068e+00
1.110173e+00
1.211068e+00
1.113375e+00
1.214221e+00
1.113375e+00
1.214221e+00
1.116039e+00
1.216844e+00
1.116039e+00
1.216844e+00
1.118189e+00
1.218961e+00
1.118189e+00
1.218961e+00
1.119844e+00
1.220589e+00
1.119844e+00
1.220589e+00
1.121017e+00
1.221743e+00
1.121017e+00
1.221743e+00
1.121717e+00
1.222432e+00
1.121717e+00
1.222432e+00
1.121950e+00
1.222661e+00
</DataArray>
<DataArray type="Float32" Name="V3" format="ascii">
0.000000e+00
0.000000e+00
1.384966e-02
8.657601e-03
1.384966e-02
8.657601e-03
2.728768e-02
1.703270e-02
2.728768e-02
1.703270e-02
3.989156e-02
2.486135e-02
3.989156e-02
2.486135e-02
5.121937e-02
3.190444e-02
5.121937e-02
3.190444e-02
6.079227e-02
3.795499e-02
6.079227e-02
3.795499e-02
6.808292e-02
4.281623e-02
6.808292e-02
4.281623e-02
7.257529e-02
4.620652e-02
7.257529e-02
4.620652e-02
7.411004e-02
4.714625e-02
7.411004e-02
4.714625e-02
7.413213e-02
4.739322e-02
7.413213e-02
4.739322e-02
7.299828e-02
4.805314e-02
7.299828e-02
4.805314e-02
7.133033e-02
4.879258e-02
7.133033e-02
4.879258e-02
6.925059e-02
4.928928e-02
6.925059e-02
4.928928e-02
6.684455e-02
4.938385e-02
6.684455e-02
4.938385e-02
6.416125e-02
4.901013e-02
6.416125e-02
4.901013e-02
6.123527e-02
4.815688e-02
6.123527e-02
4.815688e-02
5.809150e-02
4.684217e-02
5.809150e-02
4.684217e-02
5.474956e-02
4.509877e-02
5.474956e-02
4.509877e-02
5.122618e-02
4.296583e-02
5.122618e-02
4.296583e-02
4.753659e-02
4.048413e-02
4.753659e-02
4.048413e-02
4.369529e-02
3.769365e-02
4.369529e-02
3.769365e-02
3.971641e-02
3.463228e-02
3.971641e-02
3.463228e-02
3.561391e-02
3.133545e-02
3.561391e-02
3.133545e-02
3.140167e-02
2.783597e-02
3.140167e-02
2.783597e-02
2.709351e-02
2.416432e-02
2.709351e-02
2.416432e-02
2.270321e-02
2.034885e-02
2.270321e-02
2.034885e-02
1.824453e-02
1.641612e-02
1.824453e-02
1.641612e-02
1.373118e-02
1.239127e-02
1.373118e-02
1.239127e-02
9.176872e-03
8.298277e-03
9.176872e-03
8.298277e-03
4.595259e-03
4.160314e-03
4.595259e-03
4.160314e-03
0.000000e+00
0.000000e+00
</DataArray>
<DataArray type="Float32" Name="V4" format="ascii">
8.500000e-01
1.000000e+00
8.500000e-01
1.000000e+00
8.500000e-01
1.000000e+00
8.500000e-01
1.000000e+00
8.500000e-01
1.000000e+00
8.500000e-01
1.000000e+00
8.500000e-01
1.000000e+00
8.500000e-01
1.000000e+00
8.500000e-01
1.000000e+00
8.500000e-01
1.000000e+00
8.500000e-01
1.000000e+00
8.500000e-01
1.000000e+00
8.500000e-01
1.000000e+00
8.500000e-01
1.000000e+00
8.500000e-01
1.000000e+00
8.500000e-01
1.000000e+00
8.500000e-01
1.000000e+00
8.500000e-01
1.000000e+00
8.500000e-01
1.000000e+00
8.500000e-01
1.000000e+00
8.500000e-01
1.000000e+00
8.500000e-01
1.000000e+00
8.500000e-01
1.000000e+00
8.500000e-01
1.000000e+00
8.500000e-01
1.000000e+00
8.500000e-01
1.000000e+00
8.500000e-01
1.000000e+00
8.500000e-01
1.000000e+00
8.500000e-01
1.000000e+00
8.500000e-01
1.000000e+00
8.500000e-01
1.000000e+00
8.500000e-01
1.000000e+00
8.500000e-01
1.000000e+00
8.500000e-01
1.000000e+00
8.500000e-01
1.000000e+00
8.500000e-01
1.000000e+00
8.500000e-01
1.000000e+00
8.500000e-01
1.000000e+00
8.500000e-01
1.000000e+00
8.500000e-01
1.000000e+00
8.500000e-01
1.000000e+00
8.500000e-01
1.000000e+00
8.500000e-01
1.000000e+00
8.500000e-01
1.000000e+00
8.500000e-01
1.000000e+00
8.500000e-01
1.000000e+00
8.500000e-01
1.000000e+00
8.500000e-01
1.000000e+00
8.500000e-01
1.000000e+00
8.500000e-01
1.000000e+00
8.500000e-01
1.000000e+00
8.500000e-01
1.000000e+00
8.500000e-01
1.000000e+00
8.500000e-01
1.000000e+00
8.500000e-01
1.000000e+00
8.500000e-01
1.000000e+00
8.500000e-01
1.000000e+00
8.500000e-01
1.000000e+00
8.500000e-01
1.000000e+00
8.500000e-01
1.000000e+00
</DataArray>
<DataArray type="Float32" Name="V5" format="ascii">
0.000000e+00
0.000000e+00
5.235988e-02
5.235988e-02
5.235988e-02
5.235988e-02
1.047198e-01
1.047198e-01
1.047198e-01
1.047198e-01
1.570796e-01
1.570796e-01
1.570796e-01
1.570796e-01
2.094395e-01
2.094395e-01
2.094395e-01
2.094395e-01
2.617994e-01
2.617994e-01
2.617994e-01
2.617994e-01
3.141593e-01
3.141593e-01
3.141593e-01
3.141593e-01
3.665191e-01
3.665191e-01
3.665191e-01
3.665191e-01
4.188790e-01
4.188790e-01
4.188790e-01
4.188790e-01
4.712389e-01
4.712389e-01
4.712389e-01
4.712389e-01
5.235988e-01
5.235988e-01
5.235988e-01
5.235988e-01
5.759587e-01
5.759587e-01
5.759587e-01
5.759587e-01
6.283185e-01
6.283185e-01
6.283185e-01
6.283185e-01
6.806784e-01
6.806784e-01
6.806784e-01
6.806784e-01
7.330383e-01
7.330383e-01
7.330383e-01
7.330383e-01
7.853982e-01
7.853982e-01
7.853982e-01
7.853982e-01
8.377580e-01
8.377580e-01
8.377580e-01
8.377580e-01
8.901179e-01
8.901179e-01
8.901179e-01
8.901179e-01
9.424778e-01
9.424778e-01
9.424778e-01
9.424778e-01
9.948377e-01
9.948377e-01
9.948377e-01
9.948377e-01
1.047198e+00
1.047198e+00
1.047198e+00
1.047198e+00
1.099557e+00
1.099557e+00
1.099557e+00
1.099557e+00
1.151917e+00
1.151917e+00
1.151917e+00
1.151917e+00
1.204277e+00
1.204277e+00
1.204277e+00
1.204277e+00
1.256637e+00
1.256637e+00
1.256637e+00
1.256637e+00
1.308997e+00
1.308997e+00
1.308997e+00
1.308997e+00
1.361357e+00
1.361357e+00
1.361357e+00
1.361357e+00
1.413717e+00
1.413717e+00
1.413717e+00
1.413717e+00
1.466077e+00
1.466077e+00
1.466077e+00
1.466077e+00
1.518436e+00
1.518436e+00
1.518436e+00
1.518436e+00
1.570796e+00
1.570796e+00
</DataArray>
</PointData>
</Piece></UnstructuredGrid>
</VTKFile>
