<?xml version="1.0"?>
<VTKFile type="UnstructuredGrid" version="0.1" byte_order="LittleEndian" compressor="vtkZLibDataCompressor">
<UnstructuredGrid>
<Piece NumberOfPoints="120" NumberOfCells="30">
<Points>
<DataArray type="Float32" NumberOfComponents="3" format="ascii">
0.000000e+00 8.243623e-01 0.000000e+00
0.000000e+00 9.300000e-01 0.000000e+00
5.767880e-02 8.244263e-01 0.000000e+00
5.797005e-02 9.300000e-01 0.000000e+00
5.767880e-02 8.244263e-01 0.000000e+00
5.797005e-02 9.300000e-01 0.000000e+00
1.153191e-01 8.245653e-01 0.000000e+00
1.159891e-01 9.300000e-01 0.000000e+00
1.153191e-01 8.245653e-01 0.000000e+00
1.159891e-01 9.300000e-01 0.000000e+00
1.728713e-01 8.248047e-01 0.000000e+00
1.741234e-01 9.300000e-01 0.000000e+00
1.728713e-01 8.248047e-01 0.000000e+00
1.741234e-01 9.300000e-01 0.000000e+00
2.302646e-01 8.251528e-01 0.000000e+00
2.324643e-01 9.300000e-01 0.000000e+00
2.302646e-01 8.251528e-01 0.000000e+00
2.324643e-01 9.300000e-01 0.000000e+00
2.873834e-01 8.256098e-01 0.000000e+00
2.911404e-01 9.300000e-01 0.000000e+00
2.873834e-01 8.256098e-01 0.000000e+00
2.911404e-01 9.300000e-01 0.000000e+00
3.440316e-01 8.261377e-01 0.000000e+00
3.503103e-01 9.300000e-01 0.000000e+00
3.440316e-01 8.261377e-01 0.000000e+00
3.503103e-01 9.300000e-01 0.000000e+00
3.998859e-01 8.265384e-01 0.000000e+00
4.101049e-01 9.300000e-01 0.000000e+00
3.998859e-01 8.265384e-01 0.000000e+00
4.101049e-01 9.300000e-01 0.000000e+00
4.546513e-01 8.264549e-01 0.000000e+00
4.701670e-01 9.300000e-01 0.000000e+00
4.546513e-01 8.264549e-01 0.000000e+00
4.701670e-01 9.300000e-01 0.000000e+00
5.084937e-01 8.235504e-01 0.000000e+00
5.290995e-01 9.261878e-01 0.000000e+00
5.084937e-01 8.235504e-01 0.000000e+00
5.290995e-01 9.261878e-01 0.000000e+00
5.606833e-01 8.150820e-01 0.000000e+00
5.878507e-01 9.153587e-01 0.000000e+00
5.606833e-01 8.150820e-01 0.000000e+00
5.878507e-01 9.153587e-01 0.000000e+00
6.113945e-01 8.015418e-01 0.000000e+00
6.458207e-01 8.989302e-01 0.000000e+00
6.113945e-01 8.015418e-01 0.000000e+00
6.458207e-01 8.989302e-01 0.000000e+00
6.604946e-01 7.832503e-01 0.000000e+00
7.022176e-01 8.772226e-01 0.000000e+00
6.604946e-01 7.832503e-01 0.000000e+00
7.022176e-01 8.772226e-01 0.000000e+00
7.078145e-01 7.606491e-01 0.000000e+00
7.565361e-01 8.507347e-01 0.000000e+00
7.078145e-01 7.606491e-01 0.000000e+00
7.565361e-01 8.507347e-01 0.000000e+00
7.531856e-01 7.341145e-01 0.000000e+00
8.084451e-01 8.199340e-01 0.000000e+00
7.531856e-01 7.341145e-01 0.000000e+00
8.084451e-01 8.199340e-01 0.000000e+00
7.964556e-01 7.039989e-01 0.000000e+00
8.577312e-01 7.852574e-01 0.000000e+00
7.964556e-01 7.039989e-01 0.000000e+00
8.577312e-01 7.852574e-01 0.000000e+00
8.374872e-01 6.706251e-01 0.000000e+00
9.042482e-01 7.470965e-01 0.000000e+00
8.374872e-01 6.706251e-01 0.000000e+00
9.042482e-01 7.470965e-01 0.000000e+00
8.761582e-01 6.342910e-01 0.000000e+00
9.478914e-01 7.058010e-01 0.000000e+00
8.761582e-01 6.342910e-01 0.000000e+00
9.478914e-01 7.058010e-01 0.000000e+00
9.123598e-01 5.952725e-01 0.000000e+00
9.885799e-01 6.616838e-01 0.000000e+00
9.123598e-01 5.952725e-01 0.000000e+00
9.885799e-01 6.616838e-01 0.000000e+00
9.459955e-01 5.538265e-01 0.000000e+00
1.026247e+00 6.150285e-01 0.000000e+00
9.459955e-01 5.538265e-01 0.000000e+00
1.026247e+00 6.150285e-01 0.000000e+00
9.769793e-01 5.101943e-01 0.000000e+00
1.060836e+00 5.660951e-01 0.000000e+00
9.769793e-01 5.101943e-01 0.000000e+00
1.060836e+00 5.660951e-01 0.000000e+00
1.005235e+00 4.646038e-01 0.000000e+00
1.092295e+00 5.151254e-01 0.000000e+00
1.005235e+00 4.646038e-01 0.000000e+00
1.092295e+00 5.151254e-01 0.000000e+00
1.030694e+00 4.172728e-01 0.000000e+00
1.120577e+00 4.623477e-01 0.000000e+00
1.030694e+00 4.172728e-01 0.000000e+00
1.120577e+00 4.623477e-01 0.000000e+00
1.053298e+00 3.684104e-01 0.000000e+00
1.145639e+00 4.079798e-01 0.000000e+00
1.053298e+00 3.684104e-01 0.000000e+00
1.145639e+00 4.079798e-01 0.000000e+00
1.072993e+00 3.182191e-01 0.000000e+00
1.167442e+00 3.522318e-01 0.000000e+00
1.072993e+00 3.182191e-01 0.000000e+00
1.167442e+00 3.522318e-01 0.000000e+00
1.089734e+00 2.668965e-01 0.000000e+00
1.185953e+00 2.953086e-01 0.000000e+00
1.089734e+00 2.668965e-01 0.000000e+00
1.185953e+00 2.953086e-01 0.000000e+00
1.103483e+00 2.146360e-01 0.000000e+00
1.201140e+00 2.374106e-01 0.000000e+00
1.103483e+00 2.146360e-01 0.000000e+00
1.201140e+00 2.374106e-01 0.000000e+00
1.114209e+00 1.616283e-01 0.000000e+00
1.212980e+00 1.787356e-01 0.000000e+00
1.114209e+00 1.616283e-01 0.000000e+00
1.212980e+00 1.787356e-01 0.000000e+00
1.121888e+00 1.080619e-01 0.000000e+00
1.221451e+00 1.194793e-01 0.000000e+00
1.121888e+00 1.080619e-01 0.000000e+00
1.221451e+00 1.194793e-01 0.000000e+00
1.126503e+00 5.412377e-02 0.000000e+00
1.226539e+00 5.983628e-02 0.000000e+00
1.126503e+00 5.412377e-02 0.000000e+00
1.226539e+00 5.983628e-02 0.000000e+00
1.128042e+00 5.523560e-12 0.000000e+00
1.228236e+00 6.014170e-12 0.000000e+00
</DataArray>
</Points>
<Cells>
<DataArray type="Int32" Name="connectivity" format="ascii">
0 1 3 2
4 5 7 6
8 9 11 10
12 13 15 14
16 17 19 18
20 21 23 22
24 25 27 26
28 29 31 30
32 33 35 34
36 37 39 38
40 41 43 42
44 45 47 46
48 49 51 50
52 53 55 54
56 57 59 58
60 61 63 62
64 65 67 66
68 69 71 70
72 73 75 74
76 77 79 78
80 81 83 82
84 85 87 86
88 89 91 90
92 93 95 94
96 97 99 98
100 101 103 102
104 105 107 106
108 109 111 110
112 113 115 114
116 117 119 118
</DataArray>
<DataArray type="Int32" Name="offsets" format="ascii">
4
8
12
16
20
24
28
32
36
40
44
48
52
56
60
64
68
72
76
80
84
88
92
96
100
104
108
112
116
120
</DataArray>
<DataArray type="UInt8" Name="types" format="ascii">
9
9
9
9
9
9
9
9
9
9
9
9
9
9
9
9
9
9
9
9
9
9
9
9
9
9
9
9
9
9
</DataArray>
</Cells>
<PointData>
<DataArray type="Float32" Name="V1" format="ascii">
1.108449e+02
-2.613518e+01
1.109900e+02
-2.599009e+01
1.108495e+02
-2.592930e+01
1.111995e+02
-2.557931e+01
1.108413e+02
-2.538206e+01
1.114492e+02
-2.477418e+01
1.106166e+02
-2.428810e+01
1.115262e+02
-2.337840e+01
1.097728e+02
-2.229591e+01
1.110589e+02
-2.100982e+01
1.076197e+02
-1.874632e+01
1.094235e+02
-1.694247e+01
1.030340e+02
-1.245481e+01
1.058063e+02
-9.682484e+00
9.414293e+01
-4.789204e-01
9.911329e+01
4.491435e+00
8.306641e+01
1.963052e+01
8.884347e+01
2.540758e+01
7.932345e+01
3.054567e+01
8.181190e+01
3.303412e+01
7.752532e+01
3.627275e+01
7.968677e+01
3.843420e+01
7.772467e+01
4.004164e+01
7.973084e+01
4.204782e+01
7.913638e+01
4.256302e+01
8.097634e+01
4.440297e+01
8.115303e+01
4.427269e+01
8.280766e+01
4.592732e+01
8.340970e+01
4.544117e+01
8.487443e+01
4.690591e+01
8.568527e+01
4.624905e+01
8.696720e+01
4.753098e+01
8.785527e+01
4.681549e+01
8.896843e+01
4.792865e+01
8.985498e+01
4.721977e+01
9.081620e+01
4.818099e+01
9.165634e+01
4.751448e+01
9.248270e+01
4.834084e+01
9.325269e+01
4.773445e+01
9.396019e+01
4.844194e+01
9.464935e+01
4.790275e+01
9.525224e+01
4.850563e+01
9.585763e+01
4.803466e+01
9.636825e+01
4.854527e+01
9.689128e+01
4.814033e+01
9.732011e+01
4.856916e+01
9.776440e+01
4.822657e+01
9.812019e+01
4.858235e+01
9.849024e+01
4.829794e+01
9.878016e+01
4.858786e+01
9.908057e+01
4.835760e+01
9.931041e+01
4.858744e+01
9.954535e+01
4.840773e+01
9.971964e+01
4.858202e+01
9.989265e+01
4.844989e+01
1.000148e+02
4.857203e+01
1.001286e+02
4.848521e+01
1.002010e+02
4.855757e+01
1.002574e+02
4.851454e+01
1.002814e+02
4.853851e+01
</DataArray>
<DataArray type="Float32" Name="V2" format="ascii">
8.243623e-01
9.300000e-01
8.263152e-01
9.317594e-01
8.263152e-01
9.317594e-01
8.321024e-01
9.370295e-01
8.321024e-01
9.370295e-01
8.416930e-01
9.457891e-01
8.416930e-01
9.457891e-01
8.549959e-01
9.580093e-01
8.549959e-01
9.580093e-01
8.718581e-01
9.736637e-01
8.718581e-01
9.736637e-01
8.920153e-01
9.927344e-01
8.920153e-01
9.927344e-01
9.149464e-01
1.015198e+00
9.149464e-01
1.015198e+00
9.399275e-01
1.040831e+00
9.399275e-01
1.040831e+00
9.646401e-01
1.065446e+00
9.646401e-01
1.065446e+00
9.862233e-01
1.086649e+00
9.862233e-01
1.086649e+00
1.005219e+00
1.105645e+00
1.005219e+00
1.105645e+00
1.021892e+00
1.122441e+00
1.021892e+00
1.122441e+00
1.036577e+00
1.137249e+00
1.036577e+00
1.137249e+00
1.049533e+00
1.150285e+00
1.049533e+00
1.150285e+00
1.060982e+00
1.161768e+00
1.060982e+00
1.161768e+00
1.071110e+00
1.171893e+00
1.071110e+00
1.171893e+00
1.080075e+00
1.180825e+00
1.080075e+00
1.180825e+00
1.088007e+00
1.188706e+00
1.088007e+00
1.188706e+00
1.095014e+00
1.195652e+00
1.095014e+00
1.195652e+00
1.101186e+00
1.201758e+00
1.101186e+00
1.201758e+00
1.106597e+00
1.207104e+00
1.106597e+00
1.207104e+00
1.111306e+00
1.211751e+00
1.111306e+00
1.211751e+00
1.115365e+00
1.215753e+00
1.115365e+00
1.215753e+00
1.118812e+00
1.219149e+00
1.118812e+00
1.219149e+00
1.121680e+00
1.221974e+00
1.121680e+00
1.221974e+00
1.123995e+00
1.224253e+00
1.123995e+00
1.224253e+00
1.125776e+00
1.226006e+00
1.125776e+00
1.226006e+00
1.127038e+00
1.227248e+00
1.127038e+00
1.227248e+00
1.127791e+00
1.227990e+00
1.127791e+00
1.227990e+00
1.128042e+00
1.228236e+00
</DataArray>
<DataArray type="Float32" Name="V3" format="ascii">
0.000000e+00
0.000000e+00
1.445261e-02
9.218162e-03
1.445261e-02
9.218162e-03
2.849684e-02
1.814219e-02
2.849684e-02
1.814219e-02
4.171509e-02
2.649557e-02
4.171509e-02
2.649557e-02
5.367381e-02
3.402648e-02
5.367381e-02
3.402648e-02
6.390753e-02
4.051830e-02
6.390753e-02
4.051830e-02
7.190291e-02
4.577905e-02
7.190291e-02
4.577905e-02
7.712080e-02
4.958375e-02
7.712080e-02
4.958375e-02
7.919509e-02
5.125386e-02
7.919509e-02
5.125386e-02
7.918714e-02
5.095064e-02
7.918714e-02
5.095064e-02
7.802495e-02
5.141424e-02
7.802495e-02
5.141424e-02
7.620768e-02
5.203831e-02
7.620768e-02
5.203831e-02
7.396832e-02
5.248746e-02
7.396832e-02
5.248746e-02
7.138317e-02
5.255427e-02
7.138317e-02
5.255427e-02
6.850751e-02
5.214892e-02
6.850751e-02
5.214892e-02
6.537677e-02
5.124670e-02
6.537677e-02
5.124670e-02
6.201676e-02
4.985926e-02
6.201676e-02
4.985926e-02
5.844749e-02
4.801704e-02
5.844749e-02
4.801704e-02
5.468604e-02
4.575923e-02
5.468604e-02
4.575923e-02
5.074803e-02
4.312796e-02
5.074803e-02
4.312796e-02
4.664846e-02
4.016524e-02
4.664846e-02
4.016524e-02
4.240205e-02
3.691128e-02
4.240205e-02
3.691128e-02
3.802349e-02
3.340390e-02
3.802349e-02
3.340390e-02
3.352744e-02
2.967828e-02
3.352744e-02
2.967828e-02
2.892860e-02
2.576716e-02
2.892860e-02
2.576716e-02
2.424167e-02
2.170104e-02
2.424167e-02
2.170104e-02
1.948136e-02
1.750855e-02
1.948136e-02
1.750855e-02
1.466235e-02
1.321676e-02
1.466235e-02
1.321676e-02
9.799338e-03
8.851524e-03
9.799338e-03
8.851524e-03
4.907000e-03
4.437809e-03
4.907000e-03
4.437809e-03
0.000000e+00
0.000000e+00
</DataArray>
<DataArray type="Float32" Name="V4" format="ascii">
8.500000e-01
1.000000e+00
8.500000e-01
1.000000e+00
8.500000e-01
1.000000e+00
8.500000e-01
1.000000e+00
8.500000e-01
1.000000e+00
8.500000e-01
1.000000e+00
8.500000e-01
1.000000e+00
8.500000e-01
1.000000e+00
8.500000e-01
1.000000e+00
8.500000e-01
1.000000e+00
8.500000e-01
1.000000e+00
8.500000e-01
1.000000e+00
8.500000e-01
1.000000e+00
8.500000e-01
1.000000e+00
8.500000e-01
1.000000e+00
8.500000e-01
1.000000e+00
8.500000e-01
1.000000e+00
8.500000e-01
1.000000e+00
8.500000e-01
1.000000e+00
8.500000e-01
1.000000e+00
8.500000e-01
1.000000e+00
8.500000e-01
1.000000e+00
8.500000e-01
1.000000e+00
8.500000e-01
1.000000e+00
8.500000e-01
1.000000e+00
8.500000e-01
1.000000e+00
8.500000e-01
1.000000e+00
8.500000e-01
1.000000e+00
8.500000e-01
1.000000e+00
8.500000e-01
1.000000e+00
8.500000e-01
1.000000e+00
8.500000e-01
1.000000e+00
8.500000e-01
1.000000e+00
8.500000e-01
1.000000e+00
8.500000e-01
1.000000e+00
8.500000e-01
1.000000e+00
8.500000e-01
1.000000e+00
8.500000e-01
1.000000e+00
8.500000e-01
1.000000e+00
8.500000e-01
1.000000e+00
8.500000e-01
1.000000e+00
8.500000e-01
1.000000e+00
8.500000e-01
1.000000e+00
8.500000e-01
1.000000e+00
8.500000e-01
1.000000e+00
8.500000e-01
1.000000e+00
8.500000e-01
1.000000e+00
8.500000e-01
1.000000e+00
8.500000e-01
1.000000e+00
8.500000e-01
1.000000e+00
8.500000e-01
1.000000e+00
8.500000e-01
1.000000e+00
8.500000e-01
1.000000e+00
8.500000e-01
1.000000e+00
8.500000e-01
1.000000e+00
8.500000e-01
1.000000e+00
8.500000e-01
1.000000e+00
8.500000e-01
1.000000e+00
8.500000e-01
1.000000e+00
8.500000e-01
1.000000e+00
</DataArray>
<DataArray type="Float32" Name="V5" format="ascii">
0.000000e+00
0.000000e+00
5.235988e-02
5.235988e-02
5.235988e-02
5.235988e-02
1.047198e-01
1.047198e-01
1.047198e-01
1.047198e-01
1.570796e-01
1.570796e-01
1.570796e-01
1.570796e-01
2.094395e-01
2.094395e-01
2.094395e-01
2.094395e-01
2.617994e-01
2.617994e-01
2.617994e-01
2.617994e-01
3.141593e-01
3.141593e-01
3.141593e-01
3.141593e-01
3.665191e-01
3.665191e-01
3.665191e-01
3.665191e-01
4.188790e-01
4.188790e-01
4.188790e-01
4.188790e-01
4.712389e-01
4.712389e-01
4.712389e-01
4.712389e-01
5.235988e-01
5.235988e-01
5.235988e-01
5.235988e-01
5.759587e-01
5.759587e-01
5.759587e-01
5.759587e-01
6.283185e-01
6.283185e-01
6.283185e-01
6.283185e-01
6.806784e-01
6.806784e-01
6.806784e-01
6.806784e-01
7.330383e-01
7.330383e-01
7.330383e-01
7.330383e-01
7.853982e-01
7.853982e-01
7.853982e-01
7.853982e-01
8.377580e-01
8.377580e-01
8.377580e-01
8.377580e-01
8.901179e-01
8.901179e-01
8.901179e-01
8.901179e-01
9.424778e-01
9.424778e-01
9.424778e-01
9.424778e-01
9.948377e-01
9.948377e-01
9.948377e-01
9.948377e-01
1.047198e+00
1.047198e+00
1.047198e+00
1.047198e+00
1.099557e+00
1.099557e+00
1.099557e+00
1.099557e+00
1.151917e+00
1.151917e+00
1.151917e+00
1.151917e+00
1.204277e+00
1.204277e+00
1.204277e+00
1.204277e+00
1.256637e+00
1.256637e+00
1.256637e+00
1.256637e+00
1.308997e+00
1.308997e+00
1.308997e+00
1.308997e+00
1.361357e+00
1.361357e+00
1.361357e+00
1.361357e+00
1.413717e+00
1.413717e+00
1.413717e+00
1.413717e+00
1.466077e+00
1.466077e+00
1.466077e+00
1.466077e+00
1.518436e+00
1.518436e+00
1.518436e+00
1.518436e+00
1.570796e+00
1.570796e+00
</DataArray>
</PointData>
</Piece></UnstructuredGrid>
</VTKFile>
