<?xml version="1.0"?>
<VTKFile type="UnstructuredGrid" version="0.1" byte_order="LittleEndian" compressor="vtkZLibDataCompressor">
<UnstructuredGrid>
<Piece NumberOfPoints="120" NumberOfCells="30">
<Points>
<DataArray type="Float32" NumberOfComponents="3" format="ascii">
0.000000e+00 8.049953e-01 0.000000e+00
0.000000e+00 9.100000e-01 0.000000e+00
5.788318e-02 8.050541e-01 0.000000e+00
5.809450e-02 9.100000e-01 0.000000e+00
5.788318e-02 8.050541e-01 0.000000e+00
5.809450e-02 9.100000e-01 0.000000e+00
1.157344e-01 8.051809e-01 0.000000e+00
1.162227e-01 9.100000e-01 0.000000e+00
1.157344e-01 8.051809e-01 0.000000e+00
1.162227e-01 9.100000e-01 0.000000e+00
1.735130e-01 8.053993e-01 0.000000e+00
1.744329e-01 9.100000e-01 0.000000e+00
1.735130e-01 8.053993e-01 0.000000e+00
1.744329e-01 9.100000e-01 0.000000e+00
2.311634e-01 8.057183e-01 0.000000e+00
2.327956e-01 9.100000e-01 0.000000e+00
2.311634e-01 8.057183e-01 0.000000e+00
2.327956e-01 9.100000e-01 0.000000e+00
2.885973e-01 8.061449e-01 0.000000e+00
2.914174e-01 9.100000e-01 0.000000e+00
2.885973e-01 8.061449e-01 0.000000e+00
2.914174e-01 9.100000e-01 0.000000e+00
3.456652e-01 8.066678e-01 0.000000e+00
3.504447e-01 9.100000e-01 0.000000e+00
3.456652e-01 8.066678e-01 0.000000e+00
3.504447e-01 9.100000e-01 0.000000e+00
4.021126e-01 8.071995e-01 0.000000e+00
4.100380e-01 9.100000e-01 0.000000e+00
4.021126e-01 8.071995e-01 0.000000e+00
4.100380e-01 9.100000e-01 0.000000e+00
4.575671e-01 8.074095e-01 0.000000e+00
4.702189e-01 9.100000e-01 0.000000e+00
4.575671e-01 8.074095e-01 0.000000e+00
4.702189e-01 9.100000e-01 0.000000e+00
5.119982e-01 8.065772e-01 0.000000e+00
5.299329e-01 9.090924e-01 0.000000e+00
5.119982e-01 8.065772e-01 0.000000e+00
5.299329e-01 9.090924e-01 0.000000e+00
5.651403e-01 8.009032e-01 0.000000e+00
5.889106e-01 9.015565e-01 0.000000e+00
5.651403e-01 8.009032e-01 0.000000e+00
5.889106e-01 9.015565e-01 0.000000e+00
6.166268e-01 7.899732e-01 0.000000e+00
6.474695e-01 8.879318e-01 0.000000e+00
6.166268e-01 7.899732e-01 0.000000e+00
6.474695e-01 8.879318e-01 0.000000e+00
6.664820e-01 7.738807e-01 0.000000e+00
7.047563e-01 8.685738e-01 0.000000e+00
6.664820e-01 7.738807e-01 0.000000e+00
7.047563e-01 8.685738e-01 0.000000e+00
7.145528e-01 7.531396e-01 0.000000e+00
7.601101e-01 8.440289e-01 0.000000e+00
7.145528e-01 7.531396e-01 0.000000e+00
7.601101e-01 8.440289e-01 0.000000e+00
7.606596e-01 7.281583e-01 0.000000e+00
8.130840e-01 8.147991e-01 0.000000e+00
7.606596e-01 7.281583e-01 0.000000e+00
8.130840e-01 8.147991e-01 0.000000e+00
8.046405e-01 6.993309e-01 0.000000e+00
8.634010e-01 7.813785e-01 0.000000e+00
8.046405e-01 6.993309e-01 0.000000e+00
8.634010e-01 7.813785e-01 0.000000e+00
8.463492e-01 6.670163e-01 0.000000e+00
9.108813e-01 7.442126e-01 0.000000e+00
8.463492e-01 6.670163e-01 0.000000e+00
9.108813e-01 7.442126e-01 0.000000e+00
8.856570e-01 6.315458e-01 0.000000e+00
9.554045e-01 7.036993e-01 0.000000e+00
8.856570e-01 6.315458e-01 0.000000e+00
9.554045e-01 7.036993e-01 0.000000e+00
9.224505e-01 5.932248e-01 0.000000e+00
9.968850e-01 6.601921e-01 0.000000e+00
9.224505e-01 5.932248e-01 0.000000e+00
9.968850e-01 6.601921e-01 0.000000e+00
9.566303e-01 5.523359e-01 0.000000e+00
1.035257e+00 6.140076e-01 0.000000e+00
9.566303e-01 5.523359e-01 0.000000e+00
1.035257e+00 6.140076e-01 0.000000e+00
9.881089e-01 5.091426e-01 0.000000e+00
1.070468e+00 5.654326e-01 0.000000e+00
9.881089e-01 5.091426e-01 0.000000e+00
1.070468e+00 5.654326e-01 0.000000e+00
1.016809e+00 4.638921e-01 0.000000e+00
1.102471e+00 5.147305e-01 0.000000e+00
1.016809e+00 4.638921e-01 0.000000e+00
1.102471e+00 5.147305e-01 0.000000e+00
1.042664e+00 4.168184e-01 0.000000e+00
1.131225e+00 4.621469e-01 0.000000e+00
1.042664e+00 4.168184e-01 0.000000e+00
1.131225e+00 4.621469e-01 0.000000e+00
1.065614e+00 3.681449e-01 0.000000e+00
1.156691e+00 4.079138e-01 0.000000e+00
1.065614e+00 3.681449e-01 0.000000e+00
1.156691e+00 4.079138e-01 0.000000e+00
1.085606e+00 3.180862e-01 0.000000e+00
1.178836e+00 3.522530e-01 0.000000e+00
1.085606e+00 3.180862e-01 0.000000e+00
1.178836e+00 3.522530e-01 0.000000e+00
1.102598e+00 2.668504e-01 0.000000e+00
1.197629e+00 2.953788e-01 0.000000e+00
1.102598e+00 2.668504e-01 0.000000e+00
1.197629e+00 2.953788e-01 0.000000e+00
1.116550e+00 2.146404e-01 0.000000e+00
1.213043e+00 2.375000e-01 0.000000e+00
1.116550e+00 2.146404e-01 0.000000e+00
1.213043e+00 2.375000e-01 0.000000e+00
1.127434e+00 1.616552e-01 0.000000e+00
1.225056e+00 1.788216e-01 0.000000e+00
1.127434e+00 1.616552e-01 0.000000e+00
1.225056e+00 1.788216e-01 0.000000e+00
1.135225e+00 1.080909e-01 0.000000e+00
1.233650e+00 1.195455e-01 0.000000e+00
1.135225e+00 1.080909e-01 0.000000e+00
1.233650e+00 1.195455e-01 0.000000e+00
1.139906e+00 5.414154e-02 0.000000e+00
1.238811e+00 5.987199e-02 0.000000e+00
1.139906e+00 5.414154e-02 0.000000e+00
1.238811e+00 5.987199e-02 0.000000e+00
1.141468e+00 5.589300e-12 0.000000e+00
1.240533e+00 6.074380e-12 0.000000e+00
</DataArray>
</Points>
<Cells>
<DataArray type="Int32" Name="connectivity" format="ascii">
0 1 3 2
4 5 7 6
8 9 11 10
12 13 15 14
16 17 19 18
20 21 23 22
24 25 27 26
28 29 31 30
32 33 35 34
36 37 39 38
40 41 43 42
44 45 47 46
48 49 51 50
52 53 55 54
56 57 59 58
60 61 63 62
64 65 67 66
68 69 71 70
72 73 75 74
76 77 79 78
80 81 83 82
84 85 87 86
88 89 91 90
92 93 95 94
96 97 99 98
100 101 103 102
104 105 107 106
108 109 111 110
112 113 115 114
116 117 119 118
</DataArray>
<DataArray type="Int32" Name="offsets" format="ascii">
4
8
12
16
20
24
28
32
36
40
44
48
52
56
60
64
68
72
76
80
84
88
92
96
100
104
108
112
116
120
</DataArray>
<DataArray type="UInt8" Name="types" format="ascii">
9
9
9
9
9
9
9
9
9
9
9
9
9
9
9
9
9
9
9
9
9
9
9
9
9
9
9
9
9
9
</DataArray>
</Cells>
<PointData>
<DataArray type="Float32" Name="V1" format="ascii">
1.146393e+02
-2.725130e+01
1.147787e+02
-2.711191e+01
1.147299e+02
-2.710018e+01
1.150781e+02
-2.675206e+01
1.149216e+02
-2.667499e+01
1.155244e+02
-2.607215e+01
1.150587e+02
-2.581449e+01
1.159524e+02
-2.492081e+01
1.148258e+02
-2.425029e+01
1.160712e+02
-2.300484e+01
1.136718e+02
-2.148132e+01
1.153751e+02
-1.977802e+01
1.106738e+02
-1.657997e+01
1.130768e+02
-1.417689e+01
1.043441e+02
-7.759184e+00
1.082634e+02
-3.839905e+00
9.302370e+01
9.582992e+00
9.958157e+01
1.614086e+01
8.558330e+01
2.737537e+01
8.962349e+01
3.141556e+01
8.256275e+01
3.592855e+01
8.517597e+01
3.854178e+01
8.184617e+01
4.115054e+01
8.422109e+01
4.352546e+01
8.294896e+01
4.460246e+01
8.515923e+01
4.681273e+01
8.502785e+01
4.694514e+01
8.704612e+01
4.896342e+01
8.756212e+01
4.854972e+01
8.936999e+01
5.035759e+01
9.022248e+01
4.966300e+01
9.181795e+01
5.125847e+01
9.281776e+01
5.044658e+01
9.421111e+01
5.183994e+01
9.524309e+01
5.100821e+01
9.645088e+01
5.221601e+01
9.744773e+01
5.141939e+01
9.848876e+01
5.246042e+01
9.941334e+01
5.172761e+01
1.003061e+02
5.262042e+01
1.011401e+02
5.196434e+01
1.019018e+02
5.272601e+01
1.026382e+02
5.215045e+01
1.032838e+02
5.279606e+01
1.039223e+02
5.229982e+01
1.044648e+02
5.284231e+01
1.050085e+02
5.242174e+01
1.054588e+02
5.287200e+01
1.059123e+02
5.252247e+01
1.062793e+02
5.288947e+01
1.066480e+02
5.260630e+01
1.069390e+02
5.289730e+01
1.072275e+02
5.267621e+01
1.074482e+02
5.289691e+01
1.076607e+02
5.273431e+01
1.078154e+02
5.288899e+01
1.079553e+02
5.278214e+01
1.080469e+02
5.287378e+01
1.081163e+02
5.282082e+01
1.081466e+02
5.285118e+01
</DataArray>
<DataArray type="Float32" Name="V2" format="ascii">
8.049953e-01
9.100000e-01
8.069802e-01
9.117933e-01
8.069802e-01
9.117933e-01
8.128675e-01
9.171635e-01
8.128675e-01
9.171635e-01
8.226269e-01
9.260837e-01
8.226269e-01
9.260837e-01
8.361730e-01
9.385152e-01
8.361730e-01
9.385152e-01
8.533707e-01
9.544169e-01
8.533707e-01
9.544169e-01
8.740031e-01
9.737548e-01
8.740031e-01
9.737548e-01
8.976899e-01
9.965027e-01
8.976899e-01
9.965027e-01
9.237146e-01
1.022582e+00
9.237146e-01
1.022582e+00
9.511079e-01
1.050592e+00
9.511079e-01
1.050592e+00
9.761727e-01
1.075226e+00
9.761727e-01
1.075226e+00
9.983663e-01
1.097319e+00
9.983663e-01
1.097319e+00
1.017831e+00
1.116936e+00
1.017831e+00
1.116936e+00
1.034982e+00
1.134286e+00
1.034982e+00
1.134286e+00
1.050108e+00
1.149573e+00
1.050108e+00
1.149573e+00
1.063468e+00
1.163035e+00
1.063468e+00
1.163035e+00
1.075281e+00
1.174892e+00
1.075281e+00
1.174892e+00
1.085729e+00
1.185341e+00
1.085729e+00
1.185341e+00
1.094967e+00
1.194548e+00
1.094967e+00
1.194548e+00
1.103121e+00
1.202652e+00
1.103121e+00
1.202652e+00
1.110299e+00
1.209769e+00
1.110299e+00
1.209769e+00
1.116586e+00
1.215992e+00
1.116586e+00
1.215992e+00
1.122056e+00
1.221397e+00
1.122056e+00
1.221397e+00
1.126767e+00
1.226047e+00
1.126767e+00
1.226047e+00
1.130767e+00
1.229992e+00
1.130767e+00
1.229992e+00
1.134093e+00
1.233270e+00
1.134093e+00
1.233270e+00
1.136777e+00
1.235914e+00
1.136777e+00
1.235914e+00
1.138842e+00
1.237948e+00
1.138842e+00
1.237948e+00
1.140305e+00
1.239388e+00
1.140305e+00
1.239388e+00
1.141178e+00
1.240247e+00
1.141178e+00
1.240247e+00
1.141468e+00
1.240533e+00
</DataArray>
<DataArray type="Float32" Name="V3" format="ascii">
0.000000e+00
0.000000e+00
1.567057e-02
1.038916e-02
1.567057e-02
1.038916e-02
3.093609e-02
2.046508e-02
3.093609e-02
2.046508e-02
4.538460e-02
2.992998e-02
4.538460e-02
2.992998e-02
5.859372e-02
3.850884e-02
5.859372e-02
3.850884e-02
7.011794e-02
4.596222e-02
7.011794e-02
4.596222e-02
7.947308e-02
5.208724e-02
7.947308e-02
5.208724e-02
8.612997e-02
5.668862e-02
8.612997e-02
5.668862e-02
8.960533e-02
5.943600e-02
8.960533e-02
5.943600e-02
9.001538e-02
5.945439e-02
9.001538e-02
5.945439e-02
8.897429e-02
5.923330e-02
8.897429e-02
5.923330e-02
8.689646e-02
5.941130e-02
8.689646e-02
5.941130e-02
8.431966e-02
5.962495e-02
8.431966e-02
5.962495e-02
8.134569e-02
5.955195e-02
8.134569e-02
5.955195e-02
7.804722e-02
5.903218e-02
7.804722e-02
5.903218e-02
7.446514e-02
5.799869e-02
7.446514e-02
5.799869e-02
7.062846e-02
5.644078e-02
7.062846e-02
5.644078e-02
6.655870e-02
5.437846e-02
6.655870e-02
5.437846e-02
6.227385e-02
5.184769e-02
6.227385e-02
5.184769e-02
5.779032e-02
4.889153e-02
5.779032e-02
4.889153e-02
5.312405e-02
4.555517e-02
5.312405e-02
4.555517e-02
4.829095e-02
4.188322e-02
4.829095e-02
4.188322e-02
4.330713e-02
3.791833e-02
4.330713e-02
3.791833e-02
3.818893e-02
3.370069e-02
3.818893e-02
3.370069e-02
3.295287e-02
2.926791e-02
3.295287e-02
2.926791e-02
2.761560e-02
2.465523e-02
2.761560e-02
2.465523e-02
2.219390e-02
1.989579e-02
2.219390e-02
1.989579e-02
1.670460e-02
1.502100e-02
1.670460e-02
1.502100e-02
1.116458e-02
1.006089e-02
1.116458e-02
1.006089e-02
5.590749e-03
5.044442e-03
5.590749e-03
5.044442e-03
0.000000e+00
0.000000e+00
</DataArray>
<DataArray type="Float32" Name="V4" format="ascii">
8.500000e-01
1.000000e+00
8.500000e-01
1.000000e+00
8.500000e-01
1.000000e+00
8.500000e-01
1.000000e+00
8.500000e-01
1.000000e+00
8.500000e-01
1.000000e+00
8.500000e-01
1.000000e+00
8.500000e-01
1.000000e+00
8.500000e-01
1.000000e+00
8.500000e-01
1.000000e+00
8.500000e-01
1.000000e+00
8.500000e-01
1.000000e+00
8.500000e-01
1.000000e+00
8.500000e-01
1.000000e+00
8.500000e-01
1.000000e+00
8.500000e-01
1.000000e+00
8.500000e-01
1.000000e+00
8.500000e-01
1.000000e+00
8.500000e-01
1.000000e+00
8.500000e-01
1.000000e+00
8.500000e-01
1.000000e+00
8.500000e-01
1.000000e+00
8.500000e-01
1.000000e+00
8.500000e-01
1.000000e+00
8.500000e-01
1.000000e+00
8.500000e-01
1.000000e+00
8.500000e-01
1.000000e+00
8.500000e-01
1.000000e+00
8.500000e-01
1.000000e+00
8.500000e-01
1.000000e+00
8.500000e-01
1.000000e+00
8.500000e-01
1.000000e+00
8.500000e-01
1.000000e+00
8.500000e-01
1.000000e+00
8.500000e-01
1.000000e+00
8.500000e-01
1.000000e+00
8.500000e-01
1.000000e+00
8.500000e-01
1.000000e+00
8.500000e-01
1.000000e+00
8.500000e-01
1.000000e+00
8.500000e-01
1.000000e+00
8.500000e-01
1.000000e+00
8.500000e-01
1.000000e+00
8.500000e-01
1.000000e+00
8.500000e-01
1.000000e+00
8.500000e-01
1.000000e+00
8.500000e-01
1.000000e+00
8.500000e-01
1.000000e+00
8.500000e-01
1.000000e+00
8.500000e-01
1.000000e+00
8.500000e-01
1.000000e+00
8.500000e-01
1.000000e+00
8.500000e-01
1.000000e+00
8.500000e-01
1.000000e+00
8.500000e-01
1.000000e+00
8.500000e-01
1.000000e+00
8.500000e-01
1.000000e+00
8.500000e-01
1.000000e+00
8.500000e-01
1.000000e+00
8.500000e-01
1.000000e+00
</DataArray>
<DataArray type="Float32" Name="V5" format="ascii">
0.000000e+00
0.000000e+00
5.235988e-02
5.235988e-02
5.235988e-02
5.235988e-02
1.047198e-01
1.047198e-01
1.047198e-01
1.047198e-01
1.570796e-01
1.570796e-01
1.570796e-01
1.570796e-01
2.094395e-01
2.094395e-01
2.094395e-01
2.094395e-01
2.617994e-01
2.617994e-01
2.617994e-01
2.617994e-01
3.141593e-01
3.141593e-01
3.141593e-01
3.141593e-01
3.665191e-01
3.665191e-01
3.665191e-01
3.665191e-01
4.188790e-01
4.188790e-01
4.188790e-01
4.188790e-01
4.712389e-01
4.712389e-01
4.712389e-01
4.712389e-01
5.235988e-01
5.235988e-01
5.235988e-01
5.235988e-01
5.759587e-01
5.759587e-01
5.759587e-01
5.759587e-01
6.283185e-01
6.283185e-01
6.283185e-01
6.283185e-01
6.806784e-01
6.806784e-01
6.806784e-01
6.806784e-01
7.330383e-01
7.330383e-01
7.330383e-01
7.330383e-01
7.853982e-01
7.853982e-01
7.853982e-01
7.853982e-01
8.377580e-01
8.377580e-01
8.377580e-01
8.377580e-01
8.901179e-01
8.901179e-01
8.901179e-01
8.901179e-01
9.424778e-01
9.424778e-01
9.424778e-01
9.424778e-01
9.948377e-01
9.948377e-01
9.948377e-01
9.948377e-01
1.047198e+00
1.047198e+00
1.047198e+00
1.047198e+00
1.099557e+00
1.099557e+00
1.099557e+00
1.099557e+00
1.151917e+00
1.151917e+00
1.151917e+00
1.151917e+00
1.204277e+00
1.204277e+00
1.204277e+00
1.204277e+00
1.256637e+00
1.256637e+00
1.256637e+00
1.256637e+00
1.308997e+00
1.308997e+00
1.308997e+00
1.308997e+00
1.361357e+00
1.361357e+00
1.361357e+00
1.361357e+00
1.413717e+00
1.413717e+00
1.413717e+00
1.413717e+00
1.466077e+00
1.466077e+00
1.466077e+00
1.466077e+00
1.518436e+00
1.518436e+00
1.518436e+00
1.518436e+00
1.570796e+00
1.570796e+00
</DataArray>
</PointData>
</Piece></UnstructuredGrid>
</VTKFile>
