<?xml version="1.0"?>
<VTKFile type="UnstructuredGrid" version="0.1" byte_order="LittleEndian" compressor="vtkZLibDataCompressor">
<UnstructuredGrid>
<Piece NumberOfPoints="120" NumberOfCells="30">
<Points>
<DataArray type="Float32" NumberOfComponents="3" format="ascii">
0.000000e+00 5.391192e-01 0.000000e+00
0.000000e+00 6.200000e-01 0.000000e+00
6.603931e-02 5.391619e-01 0.000000e+00
6.604165e-02 6.200000e-01 0.000000e+00
6.603931e-02 5.391619e-01 0.000000e+00
6.604165e-02 6.200000e-01 0.000000e+00
1.320694e-01 5.392475e-01 0.000000e+00
1.320732e-01 6.200000e-01 0.000000e+00
1.320694e-01 5.392475e-01 0.000000e+00
1.320732e-01 6.200000e-01 0.000000e+00
1.980782e-01 5.393902e-01 0.000000e+00
1.980849e-01 6.200000e-01 0.000000e+00
1.980782e-01 5.393902e-01 0.000000e+00
1.980849e-01 6.200000e-01 0.000000e+00
2.640553e-01 5.395900e-01 0.000000e+00
2.640666e-01 6.200000e-01 0.000000e+00
2.640553e-01 5.395900e-01 0.000000e+00
2.640666e-01 6.200000e-01 0.000000e+00
3.299897e-01 5.398463e-01 0.000000e+00
3.300088e-01 6.200000e-01 0.000000e+00
3.299897e-01 5.398463e-01 0.000000e+00
3.300088e-01 6.200000e-01 0.000000e+00
3.958700e-01 5.401591e-01 0.000000e+00
3.959022e-01 6.200000e-01 0.000000e+00
3.958700e-01 5.401591e-01 0.000000e+00
3.959022e-01 6.200000e-01 0.000000e+00
4.616840e-01 5.405280e-01 0.000000e+00
4.617387e-01 6.200000e-01 0.000000e+00
4.616840e-01 5.405280e-01 0.000000e+00
4.617387e-01 6.200000e-01 0.000000e+00
5.274183e-01 5.409528e-01 0.000000e+00
5.275121e-01 6.200000e-01 0.000000e+00
5.274183e-01 5.409528e-01 0.000000e+00
5.275121e-01 6.200000e-01 0.000000e+00
5.930569e-01 5.414337e-01 0.000000e+00
5.932201e-01 6.200000e-01 0.000000e+00
5.930569e-01 5.414337e-01 0.000000e+00
5.932201e-01 6.200000e-01 0.000000e+00
6.585798e-01 5.419710e-01 0.000000e+00
6.588670e-01 6.200000e-01 0.000000e+00
6.585798e-01 5.419710e-01 0.000000e+00
6.588670e-01 6.200000e-01 0.000000e+00
7.239589e-01 5.425660e-01 0.000000e+00
7.244705e-01 6.200000e-01 0.000000e+00
7.239589e-01 5.425660e-01 0.000000e+00
7.244705e-01 6.200000e-01 0.000000e+00
7.891510e-01 5.432204e-01 0.000000e+00
7.900720e-01 6.200000e-01 0.000000e+00
7.891510e-01 5.432204e-01 0.000000e+00
7.900720e-01 6.200000e-01 0.000000e+00
8.540834e-01 5.439367e-01 0.000000e+00
8.557566e-01 6.200000e-01 0.000000e+00
8.540834e-01 5.439367e-01 0.000000e+00
8.557566e-01 6.200000e-01 0.000000e+00
9.186236e-01 5.447150e-01 0.000000e+00
9.216837e-01 6.200000e-01 0.000000e+00
9.186236e-01 5.447150e-01 0.000000e+00
9.216837e-01 6.200000e-01 0.000000e+00
9.825142e-01 5.455356e-01 0.000000e+00
9.881251e-01 6.200000e-01 0.000000e+00
9.825142e-01 5.455356e-01 0.000000e+00
9.881251e-01 6.200000e-01 0.000000e+00
1.045223e+00 5.462343e-01 0.000000e+00
1.055432e+00 6.200000e-01 0.000000e+00
1.045223e+00 5.462343e-01 0.000000e+00
1.055432e+00 6.200000e-01 0.000000e+00
1.106319e+00 5.465151e-01 0.000000e+00
1.122634e+00 6.200000e-01 0.000000e+00
1.106319e+00 5.465151e-01 0.000000e+00
1.122634e+00 6.200000e-01 0.000000e+00
1.165771e+00 5.402449e-01 0.000000e+00
1.187622e+00 6.112306e-01 0.000000e+00
1.165771e+00 5.402449e-01 0.000000e+00
1.187622e+00 6.112306e-01 0.000000e+00
1.222000e+00 5.241923e-01 0.000000e+00
1.250982e+00 5.913612e-01 0.000000e+00
1.222000e+00 5.241923e-01 0.000000e+00
1.250982e+00 5.913612e-01 0.000000e+00
1.274675e+00 4.998104e-01 0.000000e+00
1.311076e+00 5.621615e-01 0.000000e+00
1.274675e+00 4.998104e-01 0.000000e+00
1.311076e+00 5.621615e-01 0.000000e+00
1.323302e+00 4.681254e-01 0.000000e+00
1.366558e+00 5.248831e-01 0.000000e+00
1.323302e+00 4.681254e-01 0.000000e+00
1.366558e+00 5.248831e-01 0.000000e+00
1.367484e+00 4.301893e-01 0.000000e+00
1.416690e+00 4.808522e-01 0.000000e+00
1.367484e+00 4.301893e-01 0.000000e+00
1.416690e+00 4.808522e-01 0.000000e+00
1.406912e+00 3.869547e-01 0.000000e+00
1.461090e+00 4.312598e-01 0.000000e+00
1.406912e+00 3.869547e-01 0.000000e+00
1.461090e+00 4.312598e-01 0.000000e+00
1.441367e+00 3.392899e-01 0.000000e+00
1.499587e+00 3.771400e-01 0.000000e+00
1.441367e+00 3.392899e-01 0.000000e+00
1.499587e+00 3.771400e-01 0.000000e+00
1.470692e+00 2.879819e-01 0.000000e+00
1.532123e+00 3.193795e-01 0.000000e+00
1.470692e+00 2.879819e-01 0.000000e+00
1.532123e+00 3.193795e-01 0.000000e+00
1.494785e+00 2.337459e-01 0.000000e+00
1.558694e+00 2.587440e-01 0.000000e+00
1.494785e+00 2.337459e-01 0.000000e+00
1.558694e+00 2.587440e-01 0.000000e+00
1.513577e+00 1.772377e-01 0.000000e+00
1.579321e+00 1.959058e-01 0.000000e+00
1.513577e+00 1.772377e-01 0.000000e+00
1.579321e+00 1.959058e-01 0.000000e+00
1.527024e+00 1.190653e-01 0.000000e+00
1.594031e+00 1.314693e-01 0.000000e+00
1.527024e+00 1.190653e-01 0.000000e+00
1.594031e+00 1.314693e-01 0.000000e+00
1.535102e+00 5.980249e-02 0.000000e+00
1.602847e+00 6.599143e-02 0.000000e+00
1.535102e+00 5.980249e-02 0.000000e+00
1.602847e+00 6.599143e-02 0.000000e+00
1.537796e+00 7.529960e-12 0.000000e+00
1.605784e+00 7.862860e-12 0.000000e+00
</DataArray>
</Points>
<Cells>
<DataArray type="Int32" Name="connectivity" format="ascii">
0 1 3 2
4 5 7 6
8 9 11 10
12 13 15 14
16 17 19 18
20 21 23 22
24 25 27 26
28 29 31 30
32 33 35 34
36 37 39 38
40 41 43 42
44 45 47 46
48 49 51 50
52 53 55 54
56 57 59 58
60 61 63 62
64 65 67 66
68 69 71 70
72 73 75 74
76 77 79 78
80 81 83 82
84 85 87 86
88 89 91 90
92 93 95 94
96 97 99 98
100 101 103 102
104 105 107 106
108 109 111 110
112 113 115 114
116 117 119 118
</DataArray>
<DataArray type="Int32" Name="offsets" format="ascii">
4
8
12
16
20
24
28
32
36
40
44
48
52
56
60
64
68
72
76
80
84
88
92
96
100
104
108
112
116
120
</DataArray>
<DataArray type="UInt8" Name="types" format="ascii">
9
9
9
9
9
9
9
9
9
9
9
9
9
9
9
9
9
9
9
9
9
9
9
9
9
9
9
9
9
9
</DataArray>
</Cells>
<PointData>
<DataArray type="Float32" Name="V1" format="ascii">
3.549730e+02
-2.861784e+01
3.553896e+02
-2.820126e+01
3.558748e+02
-2.853503e+01
3.570111e+02
-2.739874e+01
3.580075e+02
-2.808136e+01
3.599346e+02
-2.615421e+01
3.614248e+02
-2.719383e+01
3.641645e+02
-2.445418e+01
3.661579e+02
-2.585689e+01
3.697432e+02
-2.227158e+01
3.722492e+02
-2.404385e+01
3.767255e+02
-1.956756e+01
3.797494e+02
-2.171463e+01
3.851758e+02
-1.628829e+01
3.887124e+02
-1.880986e+01
3.951641e+02
-1.235809e+01
3.991840e+02
-1.523990e+01
4.067570e+02
-7.666852e+00
4.111800e+02
-1.086434e+01
4.199975e+02
-2.046801e+00
4.246412e+02
-5.452695e+00
4.348652e+02
4.771309e+00
4.393455e+02
1.391858e+00
4.511957e+02
1.324211e+01
4.547339e+02
1.038494e+01
4.685173e+02
2.416832e+01
4.695759e+02
2.287516e+01
4.857235e+02
3.902281e+01
4.813296e+02
4.150952e+01
5.004513e+02
6.063123e+01
4.849052e+02
7.160843e+01
5.083489e+02
9.505213e+01
4.680389e+02
1.295997e+02
5.025221e+02
1.640829e+02
4.523727e+02
2.125143e+02
4.835479e+02
2.436895e+02
4.609797e+02
2.567383e+02
4.862891e+02
2.820476e+02
4.820863e+02
2.855166e+02
5.067403e+02
3.101706e+02
5.105061e+02
3.073926e+02
5.340912e+02
3.309777e+02
5.416463e+02
3.249486e+02
5.635152e+02
3.468175e+02
5.724820e+02
3.395428e+02
5.921499e+02
3.592107e+02
6.012018e+02
3.518677e+02
6.183884e+02
3.690543e+02
6.267682e+02
3.622958e+02
6.413359e+02
3.768636e+02
6.486213e+02
3.710307e+02
6.605194e+02
3.829288e+02
6.664832e+02
3.781872e+02
6.757075e+02
3.874114e+02
6.802342e+02
3.838331e+02
6.868008e+02
3.903997e+02
6.898363e+02
3.880103e+02
6.937657e+02
3.919398e+02
6.952873e+02
3.907451e+02
6.965953e+02
3.920530e+02
</DataArray>
<DataArray type="Float32" Name="V2" format="ascii">
5.391192e-01
6.200000e-01
5.418792e-01
6.226067e-01
5.418792e-01
6.226067e-01
5.500984e-01
6.304090e-01
5.500984e-01
6.304090e-01
5.637357e-01
6.433541e-01
5.637357e-01
6.433541e-01
5.826988e-01
6.613541e-01
5.826988e-01
6.613541e-01
6.068591e-01
6.842866e-01
6.068591e-01
6.842866e-01
6.360524e-01
7.119955e-01
6.360524e-01
7.119955e-01
6.700791e-01
7.442922e-01
6.700791e-01
7.442922e-01
7.087053e-01
7.809567e-01
7.087053e-01
7.809567e-01
7.516632e-01
8.217403e-01
7.516632e-01
8.217403e-01
7.986506e-01
8.663692e-01
7.986506e-01
8.663692e-01
8.493304e-01
9.145507e-01
8.493304e-01
9.145507e-01
9.033258e-01
9.659832e-01
9.033258e-01
9.659832e-01
9.602103e-01
1.020376e+00
9.602103e-01
1.020376e+00
1.019481e+00
1.077477e+00
1.019481e+00
1.077477e+00
1.080494e+00
1.137116e+00
1.080494e+00
1.137116e+00
1.142254e+00
1.199200e+00
1.142254e+00
1.199200e+00
1.203705e+00
1.262629e+00
1.203705e+00
1.262629e+00
1.260677e+00
1.320079e+00
1.260677e+00
1.320079e+00
1.310351e+00
1.371241e+00
1.310351e+00
1.371241e+00
1.353806e+00
1.416506e+00
1.353806e+00
1.416506e+00
1.391595e+00
1.455904e+00
1.391595e+00
1.455904e+00
1.424232e+00
1.489791e+00
1.424232e+00
1.489791e+00
1.452138e+00
1.518595e+00
1.452138e+00
1.518595e+00
1.475668e+00
1.542735e+00
1.475668e+00
1.542735e+00
1.495115e+00
1.562578e+00
1.495115e+00
1.562578e+00
1.510719e+00
1.578429e+00
1.510719e+00
1.578429e+00
1.522668e+00
1.590523e+00
1.522668e+00
1.590523e+00
1.531105e+00
1.599041e+00
1.531105e+00
1.599041e+00
1.536128e+00
1.604104e+00
1.536128e+00
1.604104e+00
1.537796e+00
1.605784e+00
</DataArray>
<DataArray type="Float32" Name="V3" format="ascii">
0.000000e+00
0.000000e+00
3.773125e-02
3.350285e-02
3.773125e-02
3.350285e-02
7.497918e-02
6.654203e-02
7.497918e-02
6.654203e-02
1.112603e-01
9.865677e-02
1.112603e-01
9.865677e-02
1.460980e-01
1.293909e-01
1.460980e-01
1.293909e-01
1.790230e-01
1.582962e-01
1.790230e-01
1.582962e-01
2.095764e-01
1.849348e-01
2.095764e-01
1.849348e-01
2.373113e-01
2.088821e-01
2.373113e-01
2.088821e-01
2.617953e-01
2.297296e-01
2.617953e-01
2.297296e-01
2.826119e-01
2.470888e-01
2.826119e-01
2.470888e-01
2.993613e-01
2.605955e-01
2.993613e-01
2.605955e-01
3.116604e-01
2.699159e-01
3.116604e-01
2.699159e-01
3.191397e-01
2.747549e-01
3.191397e-01
2.747549e-01
3.214370e-01
2.748691e-01
3.214370e-01
2.748691e-01
3.181849e-01
2.700835e-01
3.181849e-01
2.700835e-01
3.089905e-01
2.603037e-01
3.089905e-01
2.603037e-01
2.934597e-01
2.454724e-01
2.934597e-01
2.454724e-01
2.715074e-01
2.246660e-01
2.715074e-01
2.246660e-01
2.481560e-01
2.035709e-01
2.481560e-01
2.035709e-01
2.259245e-01
1.853766e-01
2.259245e-01
1.853766e-01
2.044888e-01
1.686920e-01
2.044888e-01
1.686920e-01
1.836637e-01
1.527301e-01
1.836637e-01
1.527301e-01
1.632082e-01
1.369394e-01
1.632082e-01
1.369394e-01
1.429390e-01
1.209922e-01
1.429390e-01
1.209922e-01
1.227230e-01
1.047166e-01
1.227230e-01
1.047166e-01
1.024741e-01
8.804566e-02
1.024741e-01
8.804566e-02
8.214526e-02
7.098086e-02
8.214526e-02
7.098086e-02
6.172000e-02
5.356633e-02
6.172000e-02
5.356633e-02
4.120444e-02
3.587253e-02
4.120444e-02
3.587253e-02
2.062051e-02
1.798552e-02
2.062051e-02
1.798552e-02
0.000000e+00
0.000000e+00
</DataArray>
<DataArray type="Float32" Name="V4" format="ascii">
8.500000e-01
1.000000e+00
8.500000e-01
1.000000e+00
8.500000e-01
1.000000e+00
8.500000e-01
1.000000e+00
8.500000e-01
1.000000e+00
8.500000e-01
1.000000e+00
8.500000e-01
1.000000e+00
8.500000e-01
1.000000e+00
8.500000e-01
1.000000e+00
8.500000e-01
1.000000e+00
8.500000e-01
1.000000e+00
8.500000e-01
1.000000e+00
8.500000e-01
1.000000e+00
8.500000e-01
1.000000e+00
8.500000e-01
1.000000e+00
8.500000e-01
1.000000e+00
8.500000e-01
1.000000e+00
8.500000e-01
1.000000e+00
8.500000e-01
1.000000e+00
8.500000e-01
1.000000e+00
8.500000e-01
1.000000e+00
8.500000e-01
1.000000e+00
8.500000e-01
1.000000e+00
8.500000e-01
1.000000e+00
8.500000e-01
1.000000e+00
8.500000e-01
1.000000e+00
8.500000e-01
1.000000e+00
8.500000e-01
1.000000e+00
8.500000e-01
1.000000e+00
8.500000e-01
1.000000e+00
8.500000e-01
1.000000e+00
8.500000e-01
1.000000e+00
8.500000e-01
1.000000e+00
8.500000e-01
1.000000e+00
8.500000e-01
1.000000e+00
8.500000e-01
1.000000e+00
8.500000e-01
1.000000e+00
8.500000e-01
1.000000e+00
8.500000e-01
1.000000e+00
8.500000e-01
1.000000e+00
8.500000e-01
1.000000e+00
8.500000e-01
1.000000e+00
8.500000e-01
1.000000e+00
8.500000e-01
1.000000e+00
8.500000e-01
1.000000e+00
8.500000e-01
1.000000e+00
8.500000e-01
1.000000e+00
8.500000e-01
1.000000e+00
8.500000e-01
1.000000e+00
8.500000e-01
1.000000e+00
8.500000e-01
1.000000e+00
8.500000e-01
1.000000e+00
8.500000e-01
1.000000e+00
8.500000e-01
1.000000e+00
8.500000e-01
1.000000e+00
8.500000e-01
1.000000e+00
8.500000e-01
1.000000e+00
8.500000e-01
1.000000e+00
8.500000e-01
1.000000e+00
8.500000e-01
1.000000e+00
</DataArray>
<DataArray type="Float32" Name="V5" format="ascii">
0.000000e+00
0.000000e+00
5.235988e-02
5.235988e-02
5.235988e-02
5.235988e-02
1.047198e-01
1.047198e-01
1.047198e-01
1.047198e-01
1.570796e-01
1.570796e-01
1.570796e-01
1.570796e-01
2.094395e-01
2.094395e-01
2.094395e-01
2.094395e-01
2.617994e-01
2.617994e-01
2.617994e-01
2.617994e-01
3.141593e-01
3.141593e-01
3.141593e-01
3.141593e-01
3.665191e-01
3.665191e-01
3.665191e-01
3.665191e-01
4.188790e-01
4.188790e-01
4.188790e-01
4.188790e-01
4.712389e-01
4.712389e-01
4.712389e-01
4.712389e-01
5.235988e-01
5.235988e-01
5.235988e-01
5.235988e-01
5.759587e-01
5.759587e-01
5.759587e-01
5.759587e-01
6.283185e-01
6.283185e-01
6.283185e-01
6.283185e-01
6.806784e-01
6.806784e-01
6.806784e-01
6.806784e-01
7.330383e-01
7.330383e-01
7.330383e-01
7.330383e-01
7.853982e-01
7.853982e-01
7.853982e-01
7.853982e-01
8.377580e-01
8.377580e-01
8.377580e-01
8.377580e-01
8.901179e-01
8.901179e-01
8.901179e-01
8.901179e-01
9.424778e-01
9.424778e-01
9.424778e-01
9.424778e-01
9.948377e-01
9.948377e-01
9.948377e-01
9.948377e-01
1.047198e+00
1.047198e+00
1.047198e+00
1.047198e+00
1.099557e+00
1.099557e+00
1.099557e+00
1.099557e+00
1.151917e+00
1.151917e+00
1.151917e+00
1.151917e+00
1.204277e+00
1.204277e+00
1.204277e+00
1.204277e+00
1.256637e+00
1.256637e+00
1.256637e+00
1.256637e+00
1.308997e+00
1.308997e+00
1.308997e+00
1.308997e+00
1.361357e+00
1.361357e+00
1.361357e+00
1.361357e+00
1.413717e+00
1.413717e+00
1.413717e+00
1.413717e+00
1.466077e+00
1.466077e+00
1.466077e+00
1.466077e+00
1.518436e+00
1.518436e+00
1.518436e+00
1.518436e+00
1.570796e+00
1.570796e+00
</DataArray>
</PointData>
</Piece></UnstructuredGrid>
</VTKFile>
