<?xml version="1.0"?>
<VTKFile type="UnstructuredGrid" version="0.1" byte_order="LittleEndian" compressor="vtkZLibDataCompressor">
<UnstructuredGrid>
<Piece NumberOfPoints="120" NumberOfCells="30">
<Points>
<DataArray type="Float32" NumberOfComponents="3" format="ascii">
0.000000e+00 5.650638e-01 0.000000e+00
0.000000e+00 6.500000e-01 0.000000e+00
6.444397e-02 5.651066e-01 0.000000e+00
6.444543e-02 6.500000e-01 0.000000e+00
6.444397e-02 5.651066e-01 0.000000e+00
6.444543e-02 6.500000e-01 0.000000e+00
1.288774e-01 5.651929e-01 0.000000e+00
1.288798e-01 6.500000e-01 0.000000e+00
1.288774e-01 5.651929e-01 0.000000e+00
1.288798e-01 6.500000e-01 0.000000e+00
1.932870e-01 5.653371e-01 0.000000e+00
1.932926e-01 6.500000e-01 0.000000e+00
1.932870e-01 5.653371e-01 0.000000e+00
1.932926e-01 6.500000e-01 0.000000e+00
2.576610e-01 5.655387e-01 0.000000e+00
2.576732e-01 6.500000e-01 0.000000e+00
2.576610e-01 5.655387e-01 0.000000e+00
2.576732e-01 6.500000e-01 0.000000e+00
3.219868e-01 5.657976e-01 0.000000e+00
3.220115e-01 6.500000e-01 0.000000e+00
3.219868e-01 5.657976e-01 0.000000e+00
3.220115e-01 6.500000e-01 0.000000e+00
3.862510e-01 5.661136e-01 0.000000e+00
3.862985e-01 6.500000e-01 0.000000e+00
3.862510e-01 5.661136e-01 0.000000e+00
3.862985e-01 6.500000e-01 0.000000e+00
4.504391e-01 5.664867e-01 0.000000e+00
4.505274e-01 6.500000e-01 0.000000e+00
4.504391e-01 5.664867e-01 0.000000e+00
4.505274e-01 6.500000e-01 0.000000e+00
5.145340e-01 5.669172e-01 0.000000e+00
5.146952e-01 6.500000e-01 0.000000e+00
5.145340e-01 5.669172e-01 0.000000e+00
5.146952e-01 6.500000e-01 0.000000e+00
5.785144e-01 5.674060e-01 0.000000e+00
5.788060e-01 6.500000e-01 0.000000e+00
5.785144e-01 5.674060e-01 0.000000e+00
5.788060e-01 6.500000e-01 0.000000e+00
6.423512e-01 5.679548e-01 0.000000e+00
6.428772e-01 6.500000e-01 0.000000e+00
6.423512e-01 5.679548e-01 0.000000e+00
6.428772e-01 6.500000e-01 0.000000e+00
7.060006e-01 5.685666e-01 0.000000e+00
7.069502e-01 6.500000e-01 0.000000e+00
7.060006e-01 5.685666e-01 0.000000e+00
7.069502e-01 6.500000e-01 0.000000e+00
7.693902e-01 5.692456e-01 0.000000e+00
7.711081e-01 6.500000e-01 0.000000e+00
7.693902e-01 5.692456e-01 0.000000e+00
7.711081e-01 6.500000e-01 0.000000e+00
8.323910e-01 5.699936e-01 0.000000e+00
8.355044e-01 6.500000e-01 0.000000e+00
8.323910e-01 5.699936e-01 0.000000e+00
8.355044e-01 6.500000e-01 0.000000e+00
8.947565e-01 5.707908e-01 0.000000e+00
9.003919e-01 6.500000e-01 0.000000e+00
8.947565e-01 5.707908e-01 0.000000e+00
9.003919e-01 6.500000e-01 0.000000e+00
9.559947e-01 5.714728e-01 0.000000e+00
9.660859e-01 6.500000e-01 0.000000e+00
9.559947e-01 5.714728e-01 0.000000e+00
9.660859e-01 6.500000e-01 0.000000e+00
1.015634e+00 5.717262e-01 0.000000e+00
1.031902e+00 6.500000e-01 0.000000e+00
1.015634e+00 5.717262e-01 0.000000e+00
1.031902e+00 6.500000e-01 0.000000e+00
1.073771e+00 5.667356e-01 0.000000e+00
1.095664e+00 6.429243e-01 0.000000e+00
1.073771e+00 5.667356e-01 0.000000e+00
1.095664e+00 6.429243e-01 0.000000e+00
1.128937e+00 5.524746e-01 0.000000e+00
1.158063e+00 6.250110e-01 0.000000e+00
1.128937e+00 5.524746e-01 0.000000e+00
1.158063e+00 6.250110e-01 0.000000e+00
1.180932e+00 5.304134e-01 0.000000e+00
1.217731e+00 5.983152e-01 0.000000e+00
1.180932e+00 5.304134e-01 0.000000e+00
1.217731e+00 5.983152e-01 0.000000e+00
1.229329e+00 5.013857e-01 0.000000e+00
1.273332e+00 5.638647e-01 0.000000e+00
1.229329e+00 5.013857e-01 0.000000e+00
1.273332e+00 5.638647e-01 0.000000e+00
1.273776e+00 4.663550e-01 0.000000e+00
1.324139e+00 5.228719e-01 0.000000e+00
1.273776e+00 4.663550e-01 0.000000e+00
1.324139e+00 5.228719e-01 0.000000e+00
1.313993e+00 4.261764e-01 0.000000e+00
1.369765e+00 4.764274e-01 0.000000e+00
1.313993e+00 4.261764e-01 0.000000e+00
1.369765e+00 4.764274e-01 0.000000e+00
1.349774e+00 3.816326e-01 0.000000e+00
1.410034e+00 4.254853e-01 0.000000e+00
1.349774e+00 3.816326e-01 0.000000e+00
1.410034e+00 4.254853e-01 0.000000e+00
1.380972e+00 3.334321e-01 0.000000e+00
1.444884e+00 3.708631e-01 0.000000e+00
1.380972e+00 3.334321e-01 0.000000e+00
1.444884e+00 3.708631e-01 0.000000e+00
1.407486e+00 2.822170e-01 0.000000e+00
1.474308e+00 3.132634e-01 0.000000e+00
1.407486e+00 2.822170e-01 0.000000e+00
1.474308e+00 3.132634e-01 0.000000e+00
1.429245e+00 2.285727e-01 0.000000e+00
1.498328e+00 2.532980e-01 0.000000e+00
1.429245e+00 2.285727e-01 0.000000e+00
1.498328e+00 2.532980e-01 0.000000e+00
1.446206e+00 1.730382e-01 0.000000e+00
1.516972e+00 1.915105e-01 0.000000e+00
1.446206e+00 1.730382e-01 0.000000e+00
1.516972e+00 1.915105e-01 0.000000e+00
1.458338e+00 1.161164e-01 0.000000e+00
1.530268e+00 1.283952e-01 0.000000e+00
1.458338e+00 1.161164e-01 0.000000e+00
1.530268e+00 1.283952e-01 0.000000e+00
1.465624e+00 5.828376e-02 0.000000e+00
1.538237e+00 6.441198e-02 0.000000e+00
1.465624e+00 5.828376e-02 0.000000e+00
1.538237e+00 6.441198e-02 0.000000e+00
1.468053e+00 7.188450e-12 0.000000e+00
1.540891e+00 7.545110e-12 0.000000e+00
</DataArray>
</Points>
<Cells>
<DataArray type="Int32" Name="connectivity" format="ascii">
0 1 3 2
4 5 7 6
8 9 11 10
12 13 15 14
16 17 19 18
20 21 23 22
24 25 27 26
28 29 31 30
32 33 35 34
36 37 39 38
40 41 43 42
44 45 47 46
48 49 51 50
52 53 55 54
56 57 59 58
60 61 63 62
64 65 67 66
68 69 71 70
72 73 75 74
76 77 79 78
80 81 83 82
84 85 87 86
88 89 91 90
92 93 95 94
96 97 99 98
100 101 103 102
104 105 107 106
108 109 111 110
112 113 115 114
116 117 119 118
</DataArray>
<DataArray type="Int32" Name="offsets" format="ascii">
4
8
12
16
20
24
28
32
36
40
44
48
52
56
60
64
68
72
76
80
84
88
92
96
100
104
108
112
116
120
</DataArray>
<DataArray type="UInt8" Name="types" format="ascii">
9
9
9
9
9
9
9
9
9
9
9
9
9
9
9
9
9
9
9
9
9
9
9
9
9
9
9
9
9
9
</DataArray>
</Cells>
<PointData>
<DataArray type="Float32" Name="V1" format="ascii">
2.938551e+02
-3.422613e+01
2.941926e+02
-3.388855e+01
2.946134e+02
-3.417122e+01
2.955368e+02
-3.324787e+01
2.963977e+02
-3.382931e+01
2.979664e+02
-3.226060e+01
2.992500e+02
-3.314532e+01
3.014822e+02
-3.091314e+01
3.031926e+02
-3.210332e+01
3.061162e+02
-2.917967e+01
3.082530e+02
-3.067555e+01
3.119069e+02
-2.702162e+01
3.144597e+02
-2.881817e+01
3.188953e+02
-2.438264e+01
3.218322e+02
-2.646236e+01
3.271162e+02
-2.117836e+01
3.303613e+02
-2.349724e+01
3.365813e+02
-1.727721e+01
3.399718e+02
-1.973764e+01
3.472449e+02
-1.246461e+01
3.504495e+02
-1.486165e+01
3.589365e+02
-6.374717e+00
3.613001e+02
-8.287237e+00
3.712283e+02
1.641050e+00
3.714822e+02
1.078477e+00
3.831760e+02
1.277230e+01
3.789123e+02
1.536298e+01
3.928451e+02
2.929578e+01
3.795451e+02
3.877088e+01
3.968264e+02
5.605215e+01
3.644665e+02
8.345881e+01
3.896443e+02
1.086366e+02
3.453530e+02
1.522892e+02
3.706480e+02
1.775842e+02
3.483980e+02
1.901538e+02
3.668858e+02
2.086417e+02
3.613227e+02
2.131716e+02
3.793640e+02
2.312129e+02
3.808163e+02
2.302357e+02
3.981554e+02
2.475748e+02
4.031971e+02
2.435343e+02
4.193778e+02
2.597151e+02
4.259436e+02
2.543392e+02
4.406117e+02
2.690073e+02
4.475523e+02
2.633255e+02
4.605160e+02
2.762892e+02
4.671636e+02
2.708842e+02
4.783425e+02
2.820631e+02
4.843214e+02
2.772438e+02
4.937023e+02
2.866247e+02
4.988098e+02
2.825424e+02
5.064140e+02
2.901466e+02
5.105481e+02
2.868664e+02
5.164105e+02
2.927289e+02
5.195255e+02
2.902716e+02
5.236824e+02
2.944285e+02
5.257616e+02
2.927951e+02
5.282428e+02
2.952763e+02
5.292823e+02
2.944617e+02
5.301072e+02
2.952865e+02
</DataArray>
<DataArray type="Float32" Name="V2" format="ascii">
5.650638e-01
6.500000e-01
5.677049e-01
6.524820e-01
5.677049e-01
6.524820e-01
5.755681e-01
6.599108e-01
5.755681e-01
6.599108e-01
5.886136e-01
6.722351e-01
5.886136e-01
6.722351e-01
6.067510e-01
6.893692e-01
6.067510e-01
6.893692e-01
6.298548e-01
7.111945e-01
6.298548e-01
7.111945e-01
6.577642e-01
7.375595e-01
6.577642e-01
7.375595e-01
6.902838e-01
7.682819e-01
6.902838e-01
7.682819e-01
7.271845e-01
8.031499e-01
7.271845e-01
8.031499e-01
7.682025e-01
8.419267e-01
7.682025e-01
8.419267e-01
8.130388e-01
8.843551e-01
8.130388e-01
8.843551e-01
8.613556e-01
9.301685e-01
8.613556e-01
9.301685e-01
9.127656e-01
9.791070e-01
9.127656e-01
9.791070e-01
9.668088e-01
1.030945e+00
9.668088e-01
1.030945e+00
1.022889e+00
1.085524e+00
1.022889e+00
1.085524e+00
1.080083e+00
1.142745e+00
1.080083e+00
1.142745e+00
1.137323e+00
1.201788e+00
1.137323e+00
1.201788e+00
1.191135e+00
1.256097e+00
1.191135e+00
1.256097e+00
1.238066e+00
1.304265e+00
1.238066e+00
1.304265e+00
1.279297e+00
1.347141e+00
1.279297e+00
1.347141e+00
1.315323e+00
1.384670e+00
1.315323e+00
1.384670e+00
1.346663e+00
1.417195e+00
1.346663e+00
1.417195e+00
1.373734e+00
1.445123e+00
1.373734e+00
1.445123e+00
1.396887e+00
1.468861e+00
1.396887e+00
1.468861e+00
1.416419e+00
1.488769e+00
1.416419e+00
1.488769e+00
1.432570e+00
1.505151e+00
1.432570e+00
1.505151e+00
1.445536e+00
1.518250e+00
1.445536e+00
1.518250e+00
1.455470e+00
1.528255e+00
1.455470e+00
1.528255e+00
1.462487e+00
1.535306e+00
1.462487e+00
1.535306e+00
1.466665e+00
1.539499e+00
1.466665e+00
1.539499e+00
1.468053e+00
1.540891e+00
</DataArray>
<DataArray type="Float32" Name="V3" format="ascii">
0.000000e+00
0.000000e+00
3.478026e-02
3.033874e-02
3.478026e-02
3.033874e-02
6.909264e-02
6.023025e-02
6.909264e-02
6.023025e-02
1.024691e-01
8.923047e-02
1.024691e-01
8.923047e-02
1.344484e-01
1.168998e-01
1.344484e-01
1.168998e-01
1.645761e-01
1.428068e-01
1.645761e-01
1.428068e-01
1.924078e-01
1.665306e-01
1.924078e-01
1.665306e-01
2.175105e-01
1.876644e-01
2.175105e-01
1.876644e-01
2.394642e-01
2.058186e-01
2.394642e-01
2.058186e-01
2.578631e-01
2.206261e-01
2.578631e-01
2.206261e-01
2.723150e-01
2.317480e-01
2.723150e-01
2.317480e-01
2.824383e-01
2.388829e-01
2.824383e-01
2.388829e-01
2.878556e-01
2.417791e-01
2.878556e-01
2.417791e-01
2.881807e-01
2.402506e-01
2.881807e-01
2.402506e-01
2.830000e-01
2.341867e-01
2.830000e-01
2.341867e-01
2.718980e-01
2.235065e-01
2.718980e-01
2.235065e-01
2.547166e-01
2.074333e-01
2.547166e-01
2.074333e-01
2.353099e-01
1.898780e-01
2.353099e-01
1.898780e-01
2.166112e-01
1.750481e-01
2.166112e-01
1.750481e-01
1.983398e-01
1.614345e-01
1.983398e-01
1.614345e-01
1.804515e-01
1.483446e-01
1.804515e-01
1.483446e-01
1.627566e-01
1.352641e-01
1.627566e-01
1.352641e-01
1.451175e-01
1.218956e-01
1.451175e-01
1.218956e-01
1.274309e-01
1.080864e-01
1.274309e-01
1.080864e-01
1.096311e-01
9.378187e-02
1.096311e-01
9.378187e-02
9.168335e-02
7.898982e-02
9.168335e-02
7.898982e-02
7.357894e-02
6.375709e-02
7.357894e-02
6.375709e-02
5.532862e-02
4.815402e-02
5.532862e-02
4.815402e-02
3.695757e-02
3.226477e-02
3.695757e-02
3.226477e-02
1.850093e-02
1.618137e-02
1.850093e-02
1.618137e-02
0.000000e+00
0.000000e+00
</DataArray>
<DataArray type="Float32" Name="V4" format="ascii">
8.500000e-01
1.000000e+00
8.500000e-01
1.000000e+00
8.500000e-01
1.000000e+00
8.500000e-01
1.000000e+00
8.500000e-01
1.000000e+00
8.500000e-01
1.000000e+00
8.500000e-01
1.000000e+00
8.500000e-01
1.000000e+00
8.500000e-01
1.000000e+00
8.500000e-01
1.000000e+00
8.500000e-01
1.000000e+00
8.500000e-01
1.000000e+00
8.500000e-01
1.000000e+00
8.500000e-01
1.000000e+00
8.500000e-01
1.000000e+00
8.500000e-01
1.000000e+00
8.500000e-01
1.000000e+00
8.500000e-01
1.000000e+00
8.500000e-01
1.000000e+00
8.500000e-01
1.000000e+00
8.500000e-01
1.000000e+00
8.500000e-01
1.000000e+00
8.500000e-01
1.000000e+00
8.500000e-01
1.000000e+00
8.500000e-01
1.000000e+00
8.500000e-01
1.000000e+00
8.500000e-01
1.000000e+00
8.500000e-01
1.000000e+00
8.500000e-01
1.000000e+00
8.500000e-01
1.000000e+00
8.500000e-01
1.000000e+00
8.500000e-01
1.000000e+00
8.500000e-01
1.000000e+00
8.500000e-01
1.000000e+00
8.500000e-01
1.000000e+00
8.500000e-01
1.000000e+00
8.500000e-01
1.000000e+00
8.500000e-01
1.000000e+00
8.500000e-01
1.000000e+00
8.500000e-01
1.000000e+00
8.500000e-01
1.000000e+00
8.500000e-01
1.000000e+00
8.500000e-01
1.000000e+00
8.500000e-01
1.000000e+00
8.500000e-01
1.000000e+00
8.500000e-01
1.000000e+00
8.500000e-01
1.000000e+00
8.500000e-01
1.000000e+00
8.500000e-01
1.000000e+00
8.500000e-01
1.000000e+00
8.500000e-01
1.000000e+00
8.500000e-01
1.000000e+00
8.500000e-01
1.000000e+00
8.500000e-01
1.000000e+00
8.500000e-01
1.000000e+00
8.500000e-01
1.000000e+00
8.500000e-01
1.000000e+00
8.500000e-01
1.000000e+00
8.500000e-01
1.000000e+00
8.500000e-01
1.000000e+00
</DataArray>
<DataArray type="Float32" Name="V5" format="ascii">
0.000000e+00
0.000000e+00
5.235988e-02
5.235988e-02
5.235988e-02
5.235988e-02
1.047198e-01
1.047198e-01
1.047198e-01
1.047198e-01
1.570796e-01
1.570796e-01
1.570796e-01
1.570796e-01
2.094395e-01
2.094395e-01
2.094395e-01
2.094395e-01
2.617994e-01
2.617994e-01
2.617994e-01
2.617994e-01
3.141593e-01
3.141593e-01
3.141593e-01
3.141593e-01
3.665191e-01
3.665191e-01
3.665191e-01
3.665191e-01
4.188790e-01
4.188790e-01
4.188790e-01
4.188790e-01
4.712389e-01
4.712389e-01
4.712389e-01
4.712389e-01
5.235988e-01
5.235988e-01
5.235988e-01
5.235988e-01
5.759587e-01
5.759587e-01
5.759587e-01
5.759587e-01
6.283185e-01
6.283185e-01
6.283185e-01
6.283185e-01
6.806784e-01
6.806784e-01
6.806784e-01
6.806784e-01
7.330383e-01
7.330383e-01
7.330383e-01
7.330383e-01
7.853982e-01
7.853982e-01
7.853982e-01
7.853982e-01
8.377580e-01
8.377580e-01
8.377580e-01
8.377580e-01
8.901179e-01
8.901179e-01
8.901179e-01
8.901179e-01
9.424778e-01
9.424778e-01
9.424778e-01
9.424778e-01
9.948377e-01
9.948377e-01
9.948377e-01
9.948377e-01
1.047198e+00
1.047198e+00
1.047198e+00
1.047198e+00
1.099557e+00
1.099557e+00
1.099557e+00
1.099557e+00
1.151917e+00
1.151917e+00
1.151917e+00
1.151917e+00
1.204277e+00
1.204277e+00
1.204277e+00
1.204277e+00
1.256637e+00
1.256637e+00
1.256637e+00
1.256637e+00
1.308997e+00
1.308997e+00
1.308997e+00
1.308997e+00
1.361357e+00
1.361357e+00
1.361357e+00
1.361357e+00
1.413717e+00
1.413717e+00
1.413717e+00
1.413717e+00
1.466077e+00
1.466077e+00
1.466077e+00
1.466077e+00
1.518436e+00
1.518436e+00
1.518436e+00
1.518436e+00
1.570796e+00
1.570796e+00
</DataArray>
</PointData>
</Piece></UnstructuredGrid>
</VTKFile>
