<?xml version="1.0"?>
<VTKFile type="UnstructuredGrid" version="0.1" byte_order="LittleEndian" compressor="vtkZLibDataCompressor">
<UnstructuredGrid>
<Piece NumberOfPoints="120" NumberOfCells="30">
<Points>
<DataArray type="Float32" NumberOfComponents="3" format="ascii">
0.000000e+00 4.329696e-01 0.000000e+00
0.000000e+00 4.900000e-01 0.000000e+00
7.864715e-02 4.330117e-01 0.000000e+00
7.865381e-02 4.900000e-01 0.000000e+00
7.864715e-02 4.330117e-01 0.000000e+00
7.865381e-02 4.900000e-01 0.000000e+00
1.572951e-01 4.330885e-01 0.000000e+00
1.573076e-01 4.900000e-01 0.000000e+00
1.572951e-01 4.330885e-01 0.000000e+00
1.573076e-01 4.900000e-01 0.000000e+00
2.359412e-01 4.332166e-01 0.000000e+00
2.359596e-01 4.900000e-01 0.000000e+00
2.359412e-01 4.332166e-01 0.000000e+00
2.359596e-01 4.900000e-01 0.000000e+00
3.145848e-01 4.333958e-01 0.000000e+00
3.146090e-01 4.900000e-01 0.000000e+00
3.145848e-01 4.333958e-01 0.000000e+00
3.146090e-01 4.900000e-01 0.000000e+00
3.932253e-01 4.336260e-01 0.000000e+00
3.932551e-01 4.900000e-01 0.000000e+00
3.932253e-01 4.336260e-01 0.000000e+00
3.932551e-01 4.900000e-01 0.000000e+00
4.718621e-01 4.339067e-01 0.000000e+00
4.718974e-01 4.900000e-01 0.000000e+00
4.718621e-01 4.339067e-01 0.000000e+00
4.718974e-01 4.900000e-01 0.000000e+00
5.504947e-01 4.342378e-01 0.000000e+00
5.505353e-01 4.900000e-01 0.000000e+00
5.504947e-01 4.342378e-01 0.000000e+00
5.505353e-01 4.900000e-01 0.000000e+00
6.291227e-01 4.346187e-01 0.000000e+00
6.291686e-01 4.900000e-01 0.000000e+00
6.291227e-01 4.346187e-01 0.000000e+00
6.291686e-01 4.900000e-01 0.000000e+00
7.077460e-01 4.350492e-01 0.000000e+00
7.077972e-01 4.900000e-01 0.000000e+00
7.077460e-01 4.350492e-01 0.000000e+00
7.077972e-01 4.900000e-01 0.000000e+00
7.863644e-01 4.355287e-01 0.000000e+00
7.864218e-01 4.900000e-01 0.000000e+00
7.863644e-01 4.355287e-01 0.000000e+00
7.864218e-01 4.900000e-01 0.000000e+00
8.649779e-01 4.360567e-01 0.000000e+00
8.650435e-01 4.900000e-01 0.000000e+00
8.649779e-01 4.360567e-01 0.000000e+00
8.650435e-01 4.900000e-01 0.000000e+00
9.435863e-01 4.366327e-01 0.000000e+00
9.436648e-01 4.900000e-01 0.000000e+00
9.435863e-01 4.366327e-01 0.000000e+00
9.436648e-01 4.900000e-01 0.000000e+00
1.022189e+00 4.372560e-01 0.000000e+00
1.022290e+00 4.900000e-01 0.000000e+00
1.022189e+00 4.372560e-01 0.000000e+00
1.022290e+00 4.900000e-01 0.000000e+00
1.100783e+00 4.379255e-01 0.000000e+00
1.100928e+00 4.900000e-01 0.000000e+00
1.100783e+00 4.379255e-01 0.000000e+00
1.100928e+00 4.900000e-01 0.000000e+00
1.179363e+00 4.386395e-01 0.000000e+00
1.179593e+00 4.900000e-01 0.000000e+00
1.179363e+00 4.386395e-01 0.000000e+00
1.179593e+00 4.900000e-01 0.000000e+00
1.257915e+00 4.393951e-01 0.000000e+00
1.258314e+00 4.900000e-01 0.000000e+00
1.257915e+00 4.393951e-01 0.000000e+00
1.258314e+00 4.900000e-01 0.000000e+00
1.336408e+00 4.401865e-01 0.000000e+00
1.337144e+00 4.900000e-01 0.000000e+00
1.336408e+00 4.401865e-01 0.000000e+00
1.337144e+00 4.900000e-01 0.000000e+00
1.414775e+00 4.410045e-01 0.000000e+00
1.416191e+00 4.900000e-01 0.000000e+00
1.414775e+00 4.410045e-01 0.000000e+00
1.416191e+00 4.900000e-01 0.000000e+00
1.492873e+00 4.418397e-01 0.000000e+00
1.495666e+00 4.900000e-01 0.000000e+00
1.492873e+00 4.418397e-01 0.000000e+00
1.495666e+00 4.900000e-01 0.000000e+00
1.570387e+00 4.427075e-01 0.000000e+00
1.575982e+00 4.900000e-01 0.000000e+00
1.570387e+00 4.427075e-01 0.000000e+00
1.575982e+00 4.900000e-01 0.000000e+00
1.646633e+00 4.436872e-01 0.000000e+00
1.657841e+00 4.900000e-01 0.000000e+00
1.646633e+00 4.436872e-01 0.000000e+00
1.657841e+00 4.900000e-01 0.000000e+00
1.721349e+00 4.410444e-01 0.000000e+00
1.736285e+00 4.853393e-01 0.000000e+00
1.721349e+00 4.410444e-01 0.000000e+00
1.736285e+00 4.853393e-01 0.000000e+00
1.792077e+00 4.199562e-01 0.000000e+00
1.812199e+00 4.607661e-01 0.000000e+00
1.792077e+00 4.199562e-01 0.000000e+00
1.812199e+00 4.607661e-01 0.000000e+00
1.856424e+00 3.847069e-01 0.000000e+00
1.882216e+00 4.209634e-01 0.000000e+00
1.856424e+00 3.847069e-01 0.000000e+00
1.882216e+00 4.209634e-01 0.000000e+00
1.912846e+00 3.376579e-01 0.000000e+00
1.943705e+00 3.685013e-01 0.000000e+00
1.912846e+00 3.376579e-01 0.000000e+00
1.943705e+00 3.685013e-01 0.000000e+00
1.960219e+00 2.810678e-01 0.000000e+00
1.995157e+00 3.059883e-01 0.000000e+00
1.960219e+00 2.810678e-01 0.000000e+00
1.995157e+00 3.059883e-01 0.000000e+00
1.997738e+00 2.170662e-01 0.000000e+00
2.035718e+00 2.358235e-01 0.000000e+00
1.997738e+00 2.170662e-01 0.000000e+00
2.035718e+00 2.358235e-01 0.000000e+00
2.024862e+00 1.476503e-01 0.000000e+00
2.064918e+00 1.601611e-01 0.000000e+00
2.024862e+00 1.476503e-01 0.000000e+00
2.064918e+00 1.601611e-01 0.000000e+00
2.041257e+00 7.469788e-02 0.000000e+00
2.082514e+00 8.095017e-02 0.000000e+00
2.041257e+00 7.469788e-02 0.000000e+00
2.082514e+00 8.095017e-02 0.000000e+00
2.046741e+00 1.002205e-11 0.000000e+00
2.088390e+00 1.022599e-11 0.000000e+00
</DataArray>
</Points>
<Cells>
<DataArray type="Int32" Name="connectivity" format="ascii">
0 1 3 2
4 5 7 6
8 9 11 10
12 13 15 14
16 17 19 18
20 21 23 22
24 25 27 26
28 29 31 30
32 33 35 34
36 37 39 38
40 41 43 42
44 45 47 46
48 49 51 50
52 53 55 54
56 57 59 58
60 61 63 62
64 65 67 66
68 69 71 70
72 73 75 74
76 77 79 78
80 81 83 82
84 85 87 86
88 89 91 90
92 93 95 94
96 97 99 98
100 101 103 102
104 105 107 106
108 109 111 110
112 113 115 114
116 117 119 118
</DataArray>
<DataArray type="Int32" Name="offsets" format="ascii">
4
8
12
16
20
24
28
32
36
40
44
48
52
56
60
64
68
72
76
80
84
88
92
96
100
104
108
112
116
120
</DataArray>
<DataArray type="UInt8" Name="types" format="ascii">
9
9
9
9
9
9
9
9
9
9
9
9
9
9
9
9
9
9
9
9
9
9
9
9
9
9
9
9
9
9
</DataArray>
</Cells>
<PointData>
<DataArray type="Float32" Name="V1" format="ascii">
1.154841e+03
1.599547e+02
1.156285e+03
1.613991e+02
1.157516e+03
1.604366e+02
1.161422e+03
1.643426e+02
1.163997e+03
1.624608e+02
1.170563e+03
1.690269e+02
1.174453e+03
1.661794e+02
1.183750e+03
1.754770e+02
1.188994e+03
1.716339e+02
1.201129e+03
1.837690e+02
1.207778e+03
1.788903e+02
1.222890e+03
1.940025e+02
1.231012e+03
1.880379e+02
1.249278e+03
2.063040e+02
1.258956e+03
1.991910e+02
1.280595e+03
2.208298e+02
1.291930e+03
2.124934e+02
1.317207e+03
2.377710e+02
1.330314e+03
2.281227e+02
1.359551e+03
2.573600e+02
1.374562e+03
2.462977e+02
1.408144e+03
2.798802e+02
1.425197e+03
2.672910e+02
1.463587e+03
3.056811e+02
1.482817e+03
2.914467e+02
1.526574e+03
3.352029e+02
1.548072e+03
3.192156e+02
1.597876e+03
3.690190e+02
1.621619e+03
3.512161e+02
1.678318e+03
4.079154e+02
1.704001e+03
3.883566e+02
1.768686e+03
4.530414e+02
1.795383e+03
4.320839e+02
1.869505e+03
5.062062e+02
1.894970e+03
4.849233e+02
1.980504e+03
5.704574e+02
1.999799e+03
5.517473e+02
2.099239e+03
6.511877e+02
2.102316e+03
6.429707e+02
2.217558e+03
7.582123e+02
2.184885e+03
7.827904e+02
2.313708e+03
9.116125e+02
2.189289e+03
1.059247e+03
2.374290e+03
1.244248e+03
2.310393e+03
1.262493e+03
2.457786e+03
1.409886e+03
2.472568e+03
1.399625e+03
2.615239e+03
1.542296e+03
2.654077e+03
1.515215e+03
2.786959e+03
1.648098e+03
2.832415e+03
1.614919e+03
2.949463e+03
1.731966e+03
2.992262e+03
1.699821e+03
3.088258e+03
1.795817e+03
3.123385e+03
1.769035e+03
3.194473e+03
1.840123e+03
3.219130e+03
1.821188e+03
3.262746e+03
1.864804e+03
3.275411e+03
1.855048e+03
3.290106e+03
1.869742e+03
</DataArray>
<DataArray type="Float32" Name="V2" format="ascii">
4.329696e-01
4.900000e-01
4.365343e-01
4.934449e-01
4.365343e-01
4.934449e-01
4.471579e-01
5.037588e-01
4.471579e-01
5.037588e-01
4.647923e-01
5.208795e-01
4.647923e-01
5.208795e-01
4.893309e-01
5.447032e-01
4.893309e-01
5.447032e-01
5.206247e-01
5.750856e-01
5.206247e-01
5.750856e-01
5.584832e-01
6.118420e-01
5.584832e-01
6.118420e-01
6.026755e-01
6.547486e-01
6.026755e-01
6.547486e-01
6.529312e-01
7.035432e-01
6.529312e-01
7.035432e-01
7.089416e-01
7.579264e-01
7.089416e-01
7.579264e-01
7.703611e-01
8.175634e-01
7.703611e-01
8.175634e-01
8.368087e-01
8.820851e-01
8.368087e-01
8.820851e-01
9.078694e-01
9.510906e-01
9.078694e-01
9.510906e-01
9.830960e-01
1.024150e+00
9.830960e-01
1.024150e+00
1.062010e+00
1.100805e+00
1.062010e+00
1.100805e+00
1.144101e+00
1.180580e+00
1.144101e+00
1.180580e+00
1.228826e+00
1.262983e+00
1.228826e+00
1.262983e+00
1.315602e+00
1.347523e+00
1.315602e+00
1.347523e+00
1.403793e+00
1.433738e+00
1.403793e+00
1.433738e+00
1.492672e+00
1.521244e+00
1.492672e+00
1.521244e+00
1.581349e+00
1.609840e+00
1.581349e+00
1.609840e+00
1.668591e+00
1.699602e+00
1.668591e+00
1.699602e+00
1.751920e+00
1.783581e+00
1.751920e+00
1.783581e+00
1.823546e+00
1.856957e+00
1.823546e+00
1.856957e+00
1.884445e+00
1.920179e+00
1.884445e+00
1.920179e+00
1.935060e+00
1.972850e+00
1.935060e+00
1.972850e+00
1.975821e+00
2.015177e+00
1.975821e+00
2.015177e+00
2.007099e+00
2.047546e+00
2.007099e+00
2.047546e+00
2.029204e+00
2.070347e+00
2.029204e+00
2.070347e+00
2.042369e+00
2.083897e+00
2.042369e+00
2.083897e+00
2.046741e+00
2.088390e+00
</DataArray>
<DataArray type="Float32" Name="V3" format="ascii">
0.000000e+00
0.000000e+00
5.587729e-02
5.290140e-02
5.587729e-02
5.290140e-02
1.111634e-01
1.052269e-01
1.111634e-01
1.052269e-01
1.652664e-01
1.564016e-01
1.652664e-01
1.564016e-01
2.176023e-01
2.058573e-01
2.176023e-01
2.058573e-01
2.675958e-01
2.530339e-01
2.675958e-01
2.530339e-01
3.146829e-01
2.973828e-01
3.146829e-01
2.973828e-01
3.583142e-01
3.383687e-01
3.583142e-01
3.383687e-01
3.979568e-01
3.754731e-01
3.979568e-01
3.754731e-01
4.330981e-01
4.081966e-01
4.330981e-01
4.081966e-01
4.632472e-01
4.360613e-01
4.632472e-01
4.360613e-01
4.879380e-01
4.586134e-01
4.879380e-01
4.586134e-01
5.067311e-01
4.754261e-01
5.067311e-01
4.754261e-01
5.192159e-01
4.861017e-01
5.192159e-01
4.861017e-01
5.250120e-01
4.902748e-01
5.250120e-01
4.902748e-01
5.237708e-01
4.876158e-01
5.237708e-01
4.876158e-01
5.151754e-01
4.778353e-01
5.151754e-01
4.778353e-01
4.989395e-01
4.606908e-01
4.989395e-01
4.606908e-01
4.748036e-01
4.359981e-01
4.748036e-01
4.359981e-01
4.425189e-01
4.036496e-01
4.425189e-01
4.036496e-01
4.017974e-01
3.636385e-01
4.017974e-01
3.636385e-01
3.522277e-01
3.160508e-01
3.522277e-01
3.160508e-01
2.972217e-01
2.628313e-01
2.972217e-01
2.628313e-01
2.501599e-01
2.192719e-01
2.501599e-01
2.192719e-01
2.077885e-01
1.812768e-01
2.077885e-01
1.812768e-01
1.689284e-01
1.471230e-01
1.689284e-01
1.471230e-01
1.326267e-01
1.155149e-01
1.326267e-01
1.155149e-01
9.812124e-02
8.553626e-02
9.812124e-02
8.553626e-02
6.481432e-02
5.655899e-02
6.481432e-02
5.655899e-02
3.223564e-02
2.815113e-02
3.223564e-02
2.815113e-02
0.000000e+00
0.000000e+00
</DataArray>
<DataArray type="Float32" Name="V4" format="ascii">
8.500000e-01
1.000000e+00
8.500000e-01
1.000000e+00
8.500000e-01
1.000000e+00
8.500000e-01
1.000000e+00
8.500000e-01
1.000000e+00
8.500000e-01
1.000000e+00
8.500000e-01
1.000000e+00
8.500000e-01
1.000000e+00
8.500000e-01
1.000000e+00
8.500000e-01
1.000000e+00
8.500000e-01
1.000000e+00
8.500000e-01
1.000000e+00
8.500000e-01
1.000000e+00
8.500000e-01
1.000000e+00
8.500000e-01
1.000000e+00
8.500000e-01
1.000000e+00
8.500000e-01
1.000000e+00
8.500000e-01
1.000000e+00
8.500000e-01
1.000000e+00
8.500000e-01
1.000000e+00
8.500000e-01
1.000000e+00
8.500000e-01
1.000000e+00
8.500000e-01
1.000000e+00
8.500000e-01
1.000000e+00
8.500000e-01
1.000000e+00
8.500000e-01
1.000000e+00
8.500000e-01
1.000000e+00
8.500000e-01
1.000000e+00
8.500000e-01
1.000000e+00
8.500000e-01
1.000000e+00
8.500000e-01
1.000000e+00
8.500000e-01
1.000000e+00
8.500000e-01
1.000000e+00
8.500000e-01
1.000000e+00
8.500000e-01
1.000000e+00
8.500000e-01
1.000000e+00
8.500000e-01
1.000000e+00
8.500000e-01
1.000000e+00
8.500000e-01
1.000000e+00
8.500000e-01
1.000000e+00
8.500000e-01
1.000000e+00
8.500000e-01
1.000000e+00
8.500000e-01
1.000000e+00
8.500000e-01
1.000000e+00
8.500000e-01
1.000000e+00
8.500000e-01
1.000000e+00
8.500000e-01
1.000000e+00
8.500000e-01
1.000000e+00
8.500000e-01
1.000000e+00
8.500000e-01
1.000000e+00
8.500000e-01
1.000000e+00
8.500000e-01
1.000000e+00
8.500000e-01
1.000000e+00
8.500000e-01
1.000000e+00
8.500000e-01
1.000000e+00
8.500000e-01
1.000000e+00
8.500000e-01
1.000000e+00
8.500000e-01
1.000000e+00
8.500000e-01
1.000000e+00
8.500000e-01
1.000000e+00
</DataArray>
<DataArray type="Float32" Name="V5" format="ascii">
0.000000e+00
0.000000e+00
5.235988e-02
5.235988e-02
5.235988e-02
5.235988e-02
1.047198e-01
1.047198e-01
1.047198e-01
1.047198e-01
1.570796e-01
1.570796e-01
1.570796e-01
1.570796e-01
2.094395e-01
2.094395e-01
2.094395e-01
2.094395e-01
2.617994e-01
2.617994e-01
2.617994e-01
2.617994e-01
3.141593e-01
3.141593e-01
3.141593e-01
3.141593e-01
3.665191e-01
3.665191e-01
3.665191e-01
3.665191e-01
4.188790e-01
4.188790e-01
4.188790e-01
4.188790e-01
4.712389e-01
4.712389e-01
4.712389e-01
4.712389e-01
5.235988e-01
5.235988e-01
5.235988e-01
5.235988e-01
5.759587e-01
5.759587e-01
5.759587e-01
5.759587e-01
6.283185e-01
6.283185e-01
6.283185e-01
6.283185e-01
6.806784e-01
6.806784e-01
6.806784e-01
6.806784e-01
7.330383e-01
7.330383e-01
7.330383e-01
7.330383e-01
7.853982e-01
7.853982e-01
7.853982e-01
7.853982e-01
8.377580e-01
8.377580e-01
8.377580e-01
8.377580e-01
8.901179e-01
8.901179e-01
8.901179e-01
8.901179e-01
9.424778e-01
9.424778e-01
9.424778e-01
9.424778e-01
9.948377e-01
9.948377e-01
9.948377e-01
9.948377e-01
1.047198e+00
1.047198e+00
1.047198e+00
1.047198e+00
1.099557e+00
1.099557e+00
1.099557e+00
1.099557e+00
1.151917e+00
1.151917e+00
1.151917e+00
1.151917e+00
1.204277e+00
1.204277e+00
1.204277e+00
1.204277e+00
1.256637e+00
1.256637e+00
1.256637e+00
1.256637e+00
1.308997e+00
1.308997e+00
1.308997e+00
1.308997e+00
1.361357e+00
1.361357e+00
1.361357e+00
1.361357e+00
1.413717e+00
1.413717e+00
1.413717e+00
1.413717e+00
1.466077e+00
1.466077e+00
1.466077e+00
1.466077e+00
1.518436e+00
1.518436e+00
1.518436e+00
1.518436e+00
1.570796e+00
1.570796e+00
</DataArray>
</PointData>
</Piece></UnstructuredGrid>
</VTKFile>
