<?xml version="1.0"?>
<VTKFile type="UnstructuredGrid" version="0.1" byte_order="LittleEndian" compressor="vtkZLibDataCompressor">
<UnstructuredGrid>
<Piece NumberOfPoints="120" NumberOfCells="30">
<Points>
<DataArray type="Float32" NumberOfComponents="3" format="ascii">
0.000000e+00 5.305500e-01 0.000000e+00
0.000000e+00 6.100000e-01 0.000000e+00
6.663114e-02 5.305927e-01 0.000000e+00
6.663383e-02 6.100000e-01 0.000000e+00
6.663114e-02 5.305927e-01 0.000000e+00
6.663383e-02 6.100000e-01 0.000000e+00
1.332535e-01 5.306779e-01 0.000000e+00
1.332580e-01 6.100000e-01 0.000000e+00
1.332535e-01 5.306779e-01 0.000000e+00
1.332580e-01 6.100000e-01 0.000000e+00
1.998556e-01 5.308202e-01 0.000000e+00
1.998630e-01 6.100000e-01 0.000000e+00
1.998556e-01 5.308202e-01 0.000000e+00
1.998630e-01 6.100000e-01 0.000000e+00
2.664273e-01 5.310192e-01 0.000000e+00
2.664391e-01 6.100000e-01 0.000000e+00
2.664273e-01 5.310192e-01 0.000000e+00
2.664391e-01 6.100000e-01 0.000000e+00
3.329583e-01 5.312747e-01 0.000000e+00
3.329769e-01 6.100000e-01 0.000000e+00
3.329583e-01 5.312747e-01 0.000000e+00
3.329769e-01 6.100000e-01 0.000000e+00
3.994379e-01 5.315863e-01 0.000000e+00
3.994673e-01 6.100000e-01 0.000000e+00
3.994379e-01 5.315863e-01 0.000000e+00
3.994673e-01 6.100000e-01 0.000000e+00
4.658546e-01 5.319538e-01 0.000000e+00
4.659022e-01 6.100000e-01 0.000000e+00
4.658546e-01 5.319538e-01 0.000000e+00
4.659022e-01 6.100000e-01 0.000000e+00
5.321959e-01 5.323768e-01 0.000000e+00
5.322748e-01 6.100000e-01 0.000000e+00
5.321959e-01 5.323768e-01 0.000000e+00
5.322748e-01 6.100000e-01 0.000000e+00
5.984475e-01 5.328554e-01 0.000000e+00
5.985812e-01 6.100000e-01 0.000000e+00
5.984475e-01 5.328554e-01 0.000000e+00
5.985812e-01 6.100000e-01 0.000000e+00
6.645917e-01 5.333897e-01 0.000000e+00
6.648232e-01 6.100000e-01 0.000000e+00
6.645917e-01 5.333897e-01 0.000000e+00
6.648232e-01 6.100000e-01 0.000000e+00
7.306045e-01 5.339804e-01 0.000000e+00
7.310126e-01 6.100000e-01 0.000000e+00
7.306045e-01 5.339804e-01 0.000000e+00
7.310126e-01 6.100000e-01 0.000000e+00
7.964498e-01 5.346286e-01 0.000000e+00
7.971806e-01 6.100000e-01 0.000000e+00
7.964498e-01 5.346286e-01 0.000000e+00
7.971806e-01 6.100000e-01 0.000000e+00
8.620684e-01 5.353363e-01 0.000000e+00
8.633934e-01 6.100000e-01 0.000000e+00
8.620684e-01 5.353363e-01 0.000000e+00
8.633934e-01 6.100000e-01 0.000000e+00
9.273545e-01 5.361047e-01 0.000000e+00
9.297804e-01 6.100000e-01 0.000000e+00
9.273545e-01 5.361047e-01 0.000000e+00
9.297804e-01 6.100000e-01 0.000000e+00
9.921057e-01 5.369274e-01 0.000000e+00
9.965750e-01 6.100000e-01 0.000000e+00
9.921057e-01 5.369274e-01 0.000000e+00
9.965750e-01 6.100000e-01 0.000000e+00
1.055910e+00 5.377420e-01 0.000000e+00
1.064140e+00 6.100000e-01 0.000000e+00
1.055910e+00 5.377420e-01 0.000000e+00
1.064140e+00 6.100000e-01 0.000000e+00
1.118078e+00 5.382854e-01 0.000000e+00
1.132524e+00 6.100000e-01 0.000000e+00
1.118078e+00 5.382854e-01 0.000000e+00
1.132524e+00 6.100000e-01 0.000000e+00
1.178831e+00 5.356372e-01 0.000000e+00
1.198413e+00 6.059005e-01 0.000000e+00
1.178831e+00 5.356372e-01 0.000000e+00
1.198413e+00 6.059005e-01 0.000000e+00
1.236545e+00 5.218054e-01 0.000000e+00
1.262877e+00 5.885228e-01 0.000000e+00
1.236545e+00 5.218054e-01 0.000000e+00
1.262877e+00 5.885228e-01 0.000000e+00
1.290768e+00 4.992843e-01 0.000000e+00
1.324529e+00 5.614152e-01 0.000000e+00
1.290768e+00 4.992843e-01 0.000000e+00
1.324529e+00 5.614152e-01 0.000000e+00
1.340937e+00 4.689197e-01 0.000000e+00
1.381696e+00 5.256242e-01 0.000000e+00
1.340937e+00 4.689197e-01 0.000000e+00
1.381696e+00 5.256242e-01 0.000000e+00
1.386605e+00 4.318688e-01 0.000000e+00
1.433495e+00 4.825710e-01 0.000000e+00
1.386605e+00 4.318688e-01 0.000000e+00
1.433495e+00 4.825710e-01 0.000000e+00
1.427416e+00 3.891475e-01 0.000000e+00
1.479446e+00 4.335315e-01 0.000000e+00
1.427416e+00 3.891475e-01 0.000000e+00
1.479446e+00 4.335315e-01 0.000000e+00
1.463114e+00 3.416874e-01 0.000000e+00
1.519327e+00 3.796238e-01 0.000000e+00
1.463114e+00 3.416874e-01 0.000000e+00
1.519327e+00 3.796238e-01 0.000000e+00
1.493520e+00 2.903330e-01 0.000000e+00
1.553050e+00 3.218078e-01 0.000000e+00
1.493520e+00 2.903330e-01 0.000000e+00
1.553050e+00 3.218078e-01 0.000000e+00
1.518512e+00 2.358513e-01 0.000000e+00
1.580599e+00 2.609106e-01 0.000000e+00
1.518512e+00 2.358513e-01 0.000000e+00
1.580599e+00 2.609106e-01 0.000000e+00
1.538012e+00 1.789445e-01 0.000000e+00
1.601989e+00 1.976568e-01 0.000000e+00
1.538012e+00 1.789445e-01 0.000000e+00
1.601989e+00 1.976568e-01 0.000000e+00
1.551969e+00 1.202629e-01 0.000000e+00
1.617244e+00 1.326949e-01 0.000000e+00
1.551969e+00 1.202629e-01 0.000000e+00
1.617244e+00 1.326949e-01 0.000000e+00
1.560354e+00 6.041899e-02 0.000000e+00
1.626387e+00 6.662141e-02 0.000000e+00
1.560354e+00 6.041899e-02 0.000000e+00
1.626387e+00 6.662141e-02 0.000000e+00
1.563151e+00 7.654110e-12 0.000000e+00
1.629432e+00 7.978660e-12 0.000000e+00
</DataArray>
</Points>
<Cells>
<DataArray type="Int32" Name="connectivity" format="ascii">
0 1 3 2
4 5 7 6
8 9 11 10
12 13 15 14
16 17 19 18
20 21 23 22
24 25 27 26
28 29 31 30
32 33 35 34
36 37 39 38
40 41 43 42
44 45 47 46
48 49 51 50
52 53 55 54
56 57 59 58
60 61 63 62
64 65 67 66
68 69 71 70
72 73 75 74
76 77 79 78
80 81 83 82
84 85 87 86
88 89 91 90
92 93 95 94
96 97 99 98
100 101 103 102
104 105 107 106
108 109 111 110
112 113 115 114
116 117 119 118
</DataArray>
<DataArray type="Int32" Name="offsets" format="ascii">
4
8
12
16
20
24
28
32
36
40
44
48
52
56
60
64
68
72
76
80
84
88
92
96
100
104
108
112
116
120
</DataArray>
<DataArray type="UInt8" Name="types" format="ascii">
9
9
9
9
9
9
9
9
9
9
9
9
9
9
9
9
9
9
9
9
9
9
9
9
9
9
9
9
9
9
</DataArray>
</Cells>
<PointData>
<DataArray type="Float32" Name="V1" format="ascii">
3.796075e+02
-2.567484e+01
3.800560e+02
-2.522636e+01
3.805664e+02
-2.558035e+01
3.817886e+02
-2.435813e+01
3.828381e+02
-2.508052e+01
3.849097e+02
-2.300884e+01
3.864806e+02
-2.410908e+01
3.894248e+02
-2.116485e+01
3.915283e+02
-2.265031e+01
3.953804e+02
-1.879824e+01
3.980288e+02
-2.067741e+01
4.028368e+02
-1.586942e+01
4.060402e+02
-1.815068e+01
4.118665e+02
-1.232440e+01
4.156276e+02
-1.501262e+01
4.225513e+02
-8.088863e+00
4.268541e+02
-1.117847e+01
4.349752e+02
-3.057359e+00
4.397629e+02
-6.518896e+00
4.492083e+02
2.926490e+00
4.543410e+02
-8.270186e-01
4.652752e+02
1.010710e+01
4.704455e+02
6.245453e+00
4.830878e+02
1.888778e+01
4.876587e+02
1.531488e+01
5.023115e+02
2.996770e+01
5.050034e+02
2.752470e+01
5.220888e+02
4.461016e+01
5.203936e+02
4.509440e+01
5.404839e+02
6.518472e+01
5.295853e+02
7.250730e+01
5.535171e+02
9.643914e+01
5.234853e+02
1.206894e+02
5.541622e+02
1.513663e+02
4.945536e+02
2.145836e+02
5.368233e+02
2.568533e+02
5.028605e+02
2.736991e+02
5.309259e+02
3.017645e+02
5.240785e+02
3.073599e+02
5.517680e+02
3.350494e+02
5.546679e+02
3.330373e+02
5.813669e+02
3.597363e+02
5.892226e+02
3.535505e+02
6.141884e+02
3.785163e+02
6.239649e+02
3.706233e+02
6.465657e+02
3.932240e+02
6.566272e+02
3.850777e+02
6.764765e+02
4.049269e+02
6.858844e+02
3.973436e+02
7.027736e+02
4.142327e+02
7.110017e+02
4.076450e+02
7.248358e+02
4.214790e+02
7.315970e+02
4.161022e+02
7.423450e+02
4.268502e+02
7.474898e+02
4.227821e+02
7.551527e+02
4.304450e+02
7.586081e+02
4.277243e+02
7.631980e+02
4.323142e+02
7.649316e+02
4.309527e+02
7.664601e+02
4.324812e+02
</DataArray>
<DataArray type="Float32" Name="V2" format="ascii">
5.305500e-01
6.100000e-01
5.333527e-01
6.126514e-01
5.333527e-01
6.126514e-01
5.416996e-01
6.205876e-01
5.416996e-01
6.205876e-01
5.555492e-01
6.337553e-01
5.555492e-01
6.337553e-01
5.748085e-01
6.520658e-01
5.748085e-01
6.520658e-01
5.993479e-01
6.753955e-01
5.993479e-01
6.753955e-01
6.290017e-01
7.035867e-01
6.290017e-01
7.035867e-01
6.635690e-01
7.364485e-01
6.635690e-01
7.364485e-01
7.028140e-01
7.737584e-01
7.028140e-01
7.737584e-01
7.464672e-01
8.152642e-01
7.464672e-01
8.152642e-01
7.942249e-01
8.606871e-01
7.942249e-01
8.606871e-01
8.457494e-01
9.097270e-01
8.457494e-01
9.097270e-01
9.006651e-01
9.620713e-01
9.006651e-01
9.620713e-01
9.585516e-01
1.017410e+00
9.585516e-01
1.017410e+00
1.018925e+00
1.075463e+00
1.018925e+00
1.075463e+00
1.081190e+00
1.136020e+00
1.081190e+00
1.136020e+00
1.144514e+00
1.198980e+00
1.144514e+00
1.198980e+00
1.207664e+00
1.264022e+00
1.207664e+00
1.264022e+00
1.268534e+00
1.325676e+00
1.268534e+00
1.325676e+00
1.321249e+00
1.379670e+00
1.321249e+00
1.379670e+00
1.367480e+00
1.427784e+00
1.367480e+00
1.427784e+00
1.407669e+00
1.469728e+00
1.407669e+00
1.469728e+00
1.442384e+00
1.505842e+00
1.442384e+00
1.505842e+00
1.472066e+00
1.536546e+00
1.472066e+00
1.536546e+00
1.497092e+00
1.562276e+00
1.497092e+00
1.562276e+00
1.517773e+00
1.583421e+00
1.517773e+00
1.583421e+00
1.534365e+00
1.600305e+00
1.534365e+00
1.600305e+00
1.547070e+00
1.613186e+00
1.547070e+00
1.613186e+00
1.556038e+00
1.622255e+00
1.556038e+00
1.622255e+00
1.561378e+00
1.627644e+00
1.561378e+00
1.627644e+00
1.563151e+00
1.629432e+00
</DataArray>
<DataArray type="Float32" Name="V3" format="ascii">
0.000000e+00
0.000000e+00
3.877075e-02
3.461757e-02
3.877075e-02
3.461757e-02
7.705258e-02
6.876559e-02
7.705258e-02
6.876559e-02
1.143564e-01
1.019773e-01
1.143564e-01
1.019773e-01
1.502001e-01
1.337906e-01
1.502001e-01
1.337906e-01
1.841090e-01
1.637513e-01
1.841090e-01
1.637513e-01
2.156188e-01
1.914156e-01
2.156188e-01
1.914156e-01
2.442775e-01
2.163527e-01
2.442775e-01
2.163527e-01
2.696480e-01
2.381479e-01
2.696480e-01
2.381479e-01
2.913093e-01
2.564056e-01
2.913093e-01
2.564056e-01
3.088584e-01
2.707538e-01
3.088584e-01
2.707538e-01
3.219099e-01
2.808489e-01
3.219099e-01
2.808489e-01
3.300946e-01
2.863836e-01
3.300946e-01
2.863836e-01
3.330549e-01
2.870972e-01
3.330549e-01
2.870972e-01
3.304346e-01
2.827918e-01
3.304346e-01
2.827918e-01
3.218597e-01
2.733498e-01
3.218597e-01
2.733498e-01
3.069214e-01
2.587303e-01
3.069214e-01
2.587303e-01
2.853029e-01
2.386615e-01
2.853029e-01
2.386615e-01
2.595596e-01
2.142254e-01
2.595596e-01
2.142254e-01
2.358476e-01
1.942352e-01
2.358476e-01
1.942352e-01
2.129912e-01
1.760649e-01
2.129912e-01
1.760649e-01
1.909622e-01
1.589422e-01
1.909622e-01
1.589422e-01
1.694513e-01
1.422043e-01
1.694513e-01
1.422043e-01
1.482397e-01
1.254496e-01
1.482397e-01
1.254496e-01
1.271631e-01
1.084540e-01
1.271631e-01
1.084540e-01
1.061113e-01
9.111636e-02
1.061113e-01
9.111636e-02
8.501905e-02
7.341586e-02
8.501905e-02
7.341586e-02
6.385670e-02
5.538299e-02
6.385670e-02
5.538299e-02
4.262084e-02
3.708005e-02
4.262084e-02
3.708005e-02
2.132644e-02
1.858840e-02
2.132644e-02
1.858840e-02
0.000000e+00
0.000000e+00
</DataArray>
<DataArray type="Float32" Name="V4" format="ascii">
8.500000e-01
1.000000e+00
8.500000e-01
1.000000e+00
8.500000e-01
1.000000e+00
8.500000e-01
1.000000e+00
8.500000e-01
1.000000e+00
8.500000e-01
1.000000e+00
8.500000e-01
1.000000e+00
8.500000e-01
1.000000e+00
8.500000e-01
1.000000e+00
8.500000e-01
1.000000e+00
8.500000e-01
1.000000e+00
8.500000e-01
1.000000e+00
8.500000e-01
1.000000e+00
8.500000e-01
1.000000e+00
8.500000e-01
1.000000e+00
8.500000e-01
1.000000e+00
8.500000e-01
1.000000e+00
8.500000e-01
1.000000e+00
8.500000e-01
1.000000e+00
8.500000e-01
1.000000e+00
8.500000e-01
1.000000e+00
8.500000e-01
1.000000e+00
8.500000e-01
1.000000e+00
8.500000e-01
1.000000e+00
8.500000e-01
1.000000e+00
8.500000e-01
1.000000e+00
8.500000e-01
1.000000e+00
8.500000e-01
1.000000e+00
8.500000e-01
1.000000e+00
8.500000e-01
1.000000e+00
8.500000e-01
1.000000e+00
8.500000e-01
1.000000e+00
8.500000e-01
1.000000e+00
8.500000e-01
1.000000e+00
8.500000e-01
1.000000e+00
8.500000e-01
1.000000e+00
8.500000e-01
1.000000e+00
8.500000e-01
1.000000e+00
8.500000e-01
1.000000e+00
8.500000e-01
1.000000e+00
8.500000e-01
1.000000e+00
8.500000e-01
1.000000e+00
8.500000e-01
1.000000e+00
8.500000e-01
1.000000e+00
8.500000e-01
1.000000e+00
8.500000e-01
1.000000e+00
8.500000e-01
1.000000e+00
8.500000e-01
1.000000e+00
8.500000e-01
1.000000e+00
8.500000e-01
1.000000e+00
8.500000e-01
1.000000e+00
8.500000e-01
1.000000e+00
8.500000e-01
1.000000e+00
8.500000e-01
1.000000e+00
8.500000e-01
1.000000e+00
8.500000e-01
1.000000e+00
8.500000e-01
1.000000e+00
8.500000e-01
1.000000e+00
8.500000e-01
1.000000e+00
8.500000e-01
1.000000e+00
</DataArray>
<DataArray type="Float32" Name="V5" format="ascii">
0.000000e+00
0.000000e+00
5.235988e-02
5.235988e-02
5.235988e-02
5.235988e-02
1.047198e-01
1.047198e-01
1.047198e-01
1.047198e-01
1.570796e-01
1.570796e-01
1.570796e-01
1.570796e-01
2.094395e-01
2.094395e-01
2.094395e-01
2.094395e-01
2.617994e-01
2.617994e-01
2.617994e-01
2.617994e-01
3.141593e-01
3.141593e-01
3.141593e-01
3.141593e-01
3.665191e-01
3.665191e-01
3.665191e-01
3.665191e-01
4.188790e-01
4.188790e-01
4.188790e-01
4.188790e-01
4.712389e-01
4.712389e-01
4.712389e-01
4.712389e-01
5.235988e-01
5.235988e-01
5.235988e-01
5.235988e-01
5.759587e-01
5.759587e-01
5.759587e-01
5.759587e-01
6.283185e-01
6.283185e-01
6.283185e-01
6.283185e-01
6.806784e-01
6.806784e-01
6.806784e-01
6.806784e-01
7.330383e-01
7.330383e-01
7.330383e-01
7.330383e-01
7.853982e-01
7.853982e-01
7.853982e-01
7.853982e-01
8.377580e-01
8.377580e-01
8.377580e-01
8.377580e-01
8.901179e-01
8.901179e-01
8.901179e-01
8.901179e-01
9.424778e-01
9.424778e-01
9.424778e-01
9.424778e-01
9.948377e-01
9.948377e-01
9.948377e-01
9.948377e-01
1.047198e+00
1.047198e+00
1.047198e+00
1.047198e+00
1.099557e+00
1.099557e+00
1.099557e+00
1.099557e+00
1.151917e+00
1.151917e+00
1.151917e+00
1.151917e+00
1.204277e+00
1.204277e+00
1.204277e+00
1.204277e+00
1.256637e+00
1.256637e+00
1.256637e+00
1.256637e+00
1.308997e+00
1.308997e+00
1.308997e+00
1.308997e+00
1.361357e+00
1.361357e+00
1.361357e+00
1.361357e+00
1.413717e+00
1.413717e+00
1.413717e+00
1.413717e+00
1.466077e+00
1.466077e+00
1.466077e+00
1.466077e+00
1.518436e+00
1.518436e+00
1.518436e+00
1.518436e+00
1.570796e+00
1.570796e+00
</DataArray>
</PointData>
</Piece></UnstructuredGrid>
</VTKFile>
