<?xml version="1.0"?>
<VTKFile type="UnstructuredGrid" version="0.1" byte_order="LittleEndian" compressor="vtkZLibDataCompressor">
<UnstructuredGrid>
<Piece NumberOfPoints="120" NumberOfCells="30">
<Points>
<DataArray type="Float32" NumberOfComponents="3" format="ascii">
0.000000e+00 4.485383e-01 0.000000e+00
0.000000e+00 5.100000e-01 0.000000e+00
7.575753e-02 4.485806e-01 0.000000e+00
7.576393e-02 5.100000e-01 0.000000e+00
7.575753e-02 4.485806e-01 0.000000e+00
7.576393e-02 5.100000e-01 0.000000e+00
1.515136e-01 4.486598e-01 0.000000e+00
1.515254e-01 5.100000e-01 0.000000e+00
1.515136e-01 4.486598e-01 0.000000e+00
1.515254e-01 5.100000e-01 0.000000e+00
2.272634e-01 4.487919e-01 0.000000e+00
2.272809e-01 5.100000e-01 0.000000e+00
2.272634e-01 4.487919e-01 0.000000e+00
2.272809e-01 5.100000e-01 0.000000e+00
3.030042e-01 4.489768e-01 0.000000e+00
3.030274e-01 5.100000e-01 0.000000e+00
3.030042e-01 4.489768e-01 0.000000e+00
3.030274e-01 5.100000e-01 0.000000e+00
3.787331e-01 4.492142e-01 0.000000e+00
3.787619e-01 5.100000e-01 0.000000e+00
3.787331e-01 4.492142e-01 0.000000e+00
3.787619e-01 5.100000e-01 0.000000e+00
4.544472e-01 4.495038e-01 0.000000e+00
4.544816e-01 5.100000e-01 0.000000e+00
4.544472e-01 4.495038e-01 0.000000e+00
4.544816e-01 5.100000e-01 0.000000e+00
5.301437e-01 4.498454e-01 0.000000e+00
5.301839e-01 5.100000e-01 0.000000e+00
5.301437e-01 4.498454e-01 0.000000e+00
5.301839e-01 5.100000e-01 0.000000e+00
6.058197e-01 4.502384e-01 0.000000e+00
6.058661e-01 5.100000e-01 0.000000e+00
6.058197e-01 4.502384e-01 0.000000e+00
6.058661e-01 5.100000e-01 0.000000e+00
6.814724e-01 4.506825e-01 0.000000e+00
6.815261e-01 5.100000e-01 0.000000e+00
6.814724e-01 4.506825e-01 0.000000e+00
6.815261e-01 5.100000e-01 0.000000e+00
7.570991e-01 4.511773e-01 0.000000e+00
7.571624e-01 5.100000e-01 0.000000e+00
7.570991e-01 4.511773e-01 0.000000e+00
7.571624e-01 5.100000e-01 0.000000e+00
8.326964e-01 4.517222e-01 0.000000e+00
8.327744e-01 5.100000e-01 0.000000e+00
8.326964e-01 4.517222e-01 0.000000e+00
8.327744e-01 5.100000e-01 0.000000e+00
9.082606e-01 4.523168e-01 0.000000e+00
9.083634e-01 5.100000e-01 0.000000e+00
9.082606e-01 4.523168e-01 0.000000e+00
9.083634e-01 5.100000e-01 0.000000e+00
9.837862e-01 4.529602e-01 0.000000e+00
9.839339e-01 5.100000e-01 0.000000e+00
9.837862e-01 4.529602e-01 0.000000e+00
9.839339e-01 5.100000e-01 0.000000e+00
1.059264e+00 4.536513e-01 0.000000e+00
1.059497e+00 5.100000e-01 0.000000e+00
1.059264e+00 4.536513e-01 0.000000e+00
1.059497e+00 5.100000e-01 0.000000e+00
1.134678e+00 4.543881e-01 0.000000e+00
1.135075e+00 5.100000e-01 0.000000e+00
1.134678e+00 4.543881e-01 0.000000e+00
1.135075e+00 5.100000e-01 0.000000e+00
1.209997e+00 4.551671e-01 0.000000e+00
1.210715e+00 5.100000e-01 0.000000e+00
1.209997e+00 4.551671e-01 0.000000e+00
1.210715e+00 5.100000e-01 0.000000e+00
1.285157e+00 4.559814e-01 0.000000e+00
1.286507e+00 5.100000e-01 0.000000e+00
1.285157e+00 4.559814e-01 0.000000e+00
1.286507e+00 5.100000e-01 0.000000e+00
1.360029e+00 4.568218e-01 0.000000e+00
1.362635e+00 5.100000e-01 0.000000e+00
1.360029e+00 4.568218e-01 0.000000e+00
1.362635e+00 5.100000e-01 0.000000e+00
1.434335e+00 4.576851e-01 0.000000e+00
1.439452e+00 5.100000e-01 0.000000e+00
1.434335e+00 4.576851e-01 0.000000e+00
1.439452e+00 5.100000e-01 0.000000e+00
1.507455e+00 4.585765e-01 0.000000e+00
1.517526e+00 5.100000e-01 0.000000e+00
1.507455e+00 4.585765e-01 0.000000e+00
1.517526e+00 5.100000e-01 0.000000e+00
1.579079e+00 4.578318e-01 0.000000e+00
1.594061e+00 5.080443e-01 0.000000e+00
1.579079e+00 4.578318e-01 0.000000e+00
1.594061e+00 5.080443e-01 0.000000e+00
1.648007e+00 4.434045e-01 0.000000e+00
1.667843e+00 4.902181e-01 0.000000e+00
1.648007e+00 4.434045e-01 0.000000e+00
1.667843e+00 4.902181e-01 0.000000e+00
1.711750e+00 4.152234e-01 0.000000e+00
1.737534e+00 4.577550e-01 0.000000e+00
1.711750e+00 4.152234e-01 0.000000e+00
1.737534e+00 4.577550e-01 0.000000e+00
1.768989e+00 3.756297e-01 0.000000e+00
1.800448e+00 4.129292e-01 0.000000e+00
1.768989e+00 3.756297e-01 0.000000e+00
1.800448e+00 4.129292e-01 0.000000e+00
1.818716e+00 3.265958e-01 0.000000e+00
1.854978e+00 3.580351e-01 0.000000e+00
1.818716e+00 3.265958e-01 0.000000e+00
1.854978e+00 3.580351e-01 0.000000e+00
1.860181e+00 2.699620e-01 0.000000e+00
1.900221e+00 2.952156e-01 0.000000e+00
1.860181e+00 2.699620e-01 0.000000e+00
1.900221e+00 2.952156e-01 0.000000e+00
1.892862e+00 2.074411e-01 0.000000e+00
1.935692e+00 2.263830e-01 0.000000e+00
1.892862e+00 2.074411e-01 0.000000e+00
1.935692e+00 2.263830e-01 0.000000e+00
1.916411e+00 1.406249e-01 0.000000e+00
1.961141e+00 1.532345e-01 0.000000e+00
1.916411e+00 1.406249e-01 0.000000e+00
1.961141e+00 1.532345e-01 0.000000e+00
1.930617e+00 7.100448e-02 0.000000e+00
1.976445e+00 7.730018e-02 0.000000e+00
1.930617e+00 7.100448e-02 0.000000e+00
1.976445e+00 7.730018e-02 0.000000e+00
1.935365e+00 9.476690e-12 0.000000e+00
1.981552e+00 9.702840e-12 0.000000e+00
</DataArray>
</Points>
<Cells>
<DataArray type="Int32" Name="connectivity" format="ascii">
0 1 3 2
4 5 7 6
8 9 11 10
12 13 15 14
16 17 19 18
20 21 23 22
24 25 27 26
28 29 31 30
32 33 35 34
36 37 39 38
40 41 43 42
44 45 47 46
48 49 51 50
52 53 55 54
56 57 59 58
60 61 63 62
64 65 67 66
68 69 71 70
72 73 75 74
76 77 79 78
80 81 83 82
84 85 87 86
88 89 91 90
92 93 95 94
96 97 99 98
100 101 103 102
104 105 107 106
108 109 111 110
112 113 115 114
116 117 119 118
</DataArray>
<DataArray type="Int32" Name="offsets" format="ascii">
4
8
12
16
20
24
28
32
36
40
44
48
52
56
60
64
68
72
76
80
84
88
92
96
100
104
108
112
116
120
</DataArray>
<DataArray type="UInt8" Name="types" format="ascii">
9
9
9
9
9
9
9
9
9
9
9
9
9
9
9
9
9
9
9
9
9
9
9
9
9
9
9
9
9
9
</DataArray>
</Cells>
<PointData>
<DataArray type="Float32" Name="V1" format="ascii">
9.144283e+02
9.002222e+01
9.155666e+02
9.116060e+01
9.165824e+02
9.038418e+01
9.196636e+02
9.346538e+01
9.217809e+02
9.193354e+01
9.269688e+02
9.712135e+01
9.301619e+02
9.479895e+01
9.375126e+02
1.021497e+02
9.418126e+02
9.901304e+01
9.514105e+02
1.086109e+02
9.568596e+02
1.046284e+02
9.688157e+02
1.165846e+02
9.754676e+02
1.117164e+02
9.899234e+02
1.261722e+02
9.978436e+02
1.203692e+02
1.014974e+03
1.374998e+02
1.024239e+03
1.307037e+02
1.044258e+03
1.507227e+02
1.054955e+03
1.428664e+02
1.078121e+03
1.660323e+02
1.090340e+03
1.570419e+02
1.116964e+03
1.836663e+02
1.130790e+03
1.734672e+02
1.161250e+03
2.039270e+02
1.176733e+03
1.924568e+02
1.211488e+03
2.272118e+02
1.228591e+03
2.144484e+02
1.268212e+03
2.540696e+02
1.286691e+03
2.400938e+02
1.331908e+03
2.853099e+02
1.351072e+03
2.704384e+02
1.402848e+03
3.222149e+02
1.421056e+03
3.073030e+02
1.480711e+03
3.669582e+02
1.494384e+03
3.541366e+02
1.563671e+03
4.234237e+02
1.565437e+03
4.180662e+02
1.646162e+03
4.987907e+02
1.621378e+03
5.151964e+02
1.713978e+03
6.077967e+02
1.620517e+03
7.015089e+02
1.752886e+03
8.338777e+02
1.677120e+03
8.910393e+02
1.785207e+03
9.991262e+02
1.776098e+03
1.004425e+03
1.880910e+03
1.109237e+03
1.901233e+03
1.095314e+03
2.001172e+03
1.195252e+03
2.032458e+03
1.172372e+03
2.123684e+03
1.263598e+03
2.156741e+03
1.238562e+03
2.235631e+03
1.317451e+03
2.265570e+03
1.294398e+03
2.329355e+03
1.358184e+03
2.353462e+03
1.339494e+03
2.400223e+03
1.386255e+03
2.416967e+03
1.373243e+03
2.445475e+03
1.401751e+03
2.454029e+03
1.395099e+03
2.463604e+03
1.404674e+03
</DataArray>
<DataArray type="Float32" Name="V2" format="ascii">
4.485383e-01
5.100000e-01
4.519306e-01
5.132662e-01
4.519306e-01
5.132662e-01
4.620395e-01
5.230449e-01
4.620395e-01
5.230449e-01
4.788184e-01
5.392756e-01
4.788184e-01
5.392756e-01
5.021637e-01
5.618582e-01
5.021637e-01
5.618582e-01
5.319310e-01
5.906530e-01
5.319310e-01
5.906530e-01
5.679355e-01
6.254814e-01
5.679355e-01
6.254814e-01
6.099533e-01
6.661269e-01
6.099533e-01
6.661269e-01
6.577223e-01
7.123361e-01
6.577223e-01
7.123361e-01
7.109431e-01
7.638197e-01
7.109431e-01
7.638197e-01
7.692805e-01
8.202542e-01
7.692805e-01
8.202542e-01
8.323651e-01
8.812834e-01
8.323651e-01
8.812834e-01
8.997942e-01
9.465213e-01
8.997942e-01
9.465213e-01
9.711329e-01
1.015554e+00
9.711329e-01
1.015554e+00
1.045915e+00
1.087946e+00
1.045915e+00
1.087946e+00
1.123640e+00
1.163244e+00
1.123640e+00
1.163244e+00
1.203769e+00
1.240993e+00
1.203769e+00
1.240993e+00
1.285713e+00
1.320757e+00
1.285713e+00
1.320757e+00
1.368800e+00
1.402166e+00
1.368800e+00
1.402166e+00
1.452208e+00
1.484992e+00
1.452208e+00
1.484992e+00
1.534782e+00
1.569216e+00
1.534782e+00
1.569216e+00
1.614821e+00
1.650966e+00
1.614821e+00
1.650966e+00
1.685878e+00
1.723040e+00
1.685878e+00
1.723040e+00
1.746859e+00
1.786173e+00
1.746859e+00
1.786173e+00
1.798485e+00
1.839930e+00
1.798485e+00
1.839930e+00
1.841274e+00
1.884437e+00
1.841274e+00
1.884437e+00
1.875660e+00
1.920076e+00
1.875660e+00
1.920076e+00
1.902008e+00
1.947275e+00
1.902008e+00
1.947275e+00
1.920612e+00
1.966415e+00
1.920612e+00
1.966415e+00
1.931688e+00
1.977782e+00
1.931688e+00
1.977782e+00
1.935365e+00
1.981552e+00
</DataArray>
<DataArray type="Float32" Name="V3" format="ascii">
0.000000e+00
0.000000e+00
5.217681e-02
4.896876e-02
5.217681e-02
4.896876e-02
1.037859e-01
9.738584e-02
1.037859e-01
9.738584e-02
1.542589e-01
1.447011e-01
1.542589e-01
1.447011e-01
2.030353e-01
1.903705e-01
2.030353e-01
1.903705e-01
2.495629e-01
2.338582e-01
2.495629e-01
2.338582e-01
2.933006e-01
2.746390e-01
2.933006e-01
2.746390e-01
3.337216e-01
3.122016e-01
3.337216e-01
3.122016e-01
3.703154e-01
3.460505e-01
3.703154e-01
3.460505e-01
4.025908e-01
3.757091e-01
4.025908e-01
3.757091e-01
4.300784e-01
4.007219e-01
4.300784e-01
4.007219e-01
4.523324e-01
4.206575e-01
4.523324e-01
4.206575e-01
4.689331e-01
4.351109e-01
4.689331e-01
4.351109e-01
4.794884e-01
4.437068e-01
4.794884e-01
4.437068e-01
4.836347e-01
4.461030e-01
4.836347e-01
4.461030e-01
4.810377e-01
4.419948e-01
4.810377e-01
4.419948e-01
4.713908e-01
4.311223e-01
4.713908e-01
4.311223e-01
4.544114e-01
4.132807e-01
4.544114e-01
4.132807e-01
4.298285e-01
3.883382e-01
4.298285e-01
3.883382e-01
3.973479e-01
3.562597e-01
3.973479e-01
3.562597e-01
3.565886e-01
3.170903e-01
3.565886e-01
3.170903e-01
3.089556e-01
2.710178e-01
3.089556e-01
2.710178e-01
2.652346e-01
2.305363e-01
2.652346e-01
2.305363e-01
2.257920e-01
1.953256e-01
2.257920e-01
1.953256e-01
1.894027e-01
1.636501e-01
1.894027e-01
1.636501e-01
1.552510e-01
1.342682e-01
1.552510e-01
1.342682e-01
1.226908e-01
1.063138e-01
1.226908e-01
1.063138e-01
9.122166e-02
7.921310e-02
9.122166e-02
7.921310e-02
6.046498e-02
5.259995e-02
6.046498e-02
5.259995e-02
3.013354e-02
2.624491e-02
3.013354e-02
2.624491e-02
0.000000e+00
0.000000e+00
</DataArray>
<DataArray type="Float32" Name="V4" format="ascii">
8.500000e-01
1.000000e+00
8.500000e-01
1.000000e+00
8.500000e-01
1.000000e+00
8.500000e-01
1.000000e+00
8.500000e-01
1.000000e+00
8.500000e-01
1.000000e+00
8.500000e-01
1.000000e+00
8.500000e-01
1.000000e+00
8.500000e-01
1.000000e+00
8.500000e-01
1.000000e+00
8.500000e-01
1.000000e+00
8.500000e-01
1.000000e+00
8.500000e-01
1.000000e+00
8.500000e-01
1.000000e+00
8.500000e-01
1.000000e+00
8.500000e-01
1.000000e+00
8.500000e-01
1.000000e+00
8.500000e-01
1.000000e+00
8.500000e-01
1.000000e+00
8.500000e-01
1.000000e+00
8.500000e-01
1.000000e+00
8.500000e-01
1.000000e+00
8.500000e-01
1.000000e+00
8.500000e-01
1.000000e+00
8.500000e-01
1.000000e+00
8.500000e-01
1.000000e+00
8.500000e-01
1.000000e+00
8.500000e-01
1.000000e+00
8.500000e-01
1.000000e+00
8.500000e-01
1.000000e+00
8.500000e-01
1.000000e+00
8.500000e-01
1.000000e+00
8.500000e-01
1.000000e+00
8.500000e-01
1.000000e+00
8.500000e-01
1.000000e+00
8.500000e-01
1.000000e+00
8.500000e-01
1.000000e+00
8.500000e-01
1.000000e+00
8.500000e-01
1.000000e+00
8.500000e-01
1.000000e+00
8.500000e-01
1.000000e+00
8.500000e-01
1.000000e+00
8.500000e-01
1.000000e+00
8.500000e-01
1.000000e+00
8.500000e-01
1.000000e+00
8.500000e-01
1.000000e+00
8.500000e-01
1.000000e+00
8.500000e-01
1.000000e+00
8.500000e-01
1.000000e+00
8.500000e-01
1.000000e+00
8.500000e-01
1.000000e+00
8.500000e-01
1.000000e+00
8.500000e-01
1.000000e+00
8.500000e-01
1.000000e+00
8.500000e-01
1.000000e+00
8.500000e-01
1.000000e+00
8.500000e-01
1.000000e+00
8.500000e-01
1.000000e+00
8.500000e-01
1.000000e+00
8.500000e-01
1.000000e+00
</DataArray>
<DataArray type="Float32" Name="V5" format="ascii">
0.000000e+00
0.000000e+00
5.235988e-02
5.235988e-02
5.235988e-02
5.235988e-02
1.047198e-01
1.047198e-01
1.047198e-01
1.047198e-01
1.570796e-01
1.570796e-01
1.570796e-01
1.570796e-01
2.094395e-01
2.094395e-01
2.094395e-01
2.094395e-01
2.617994e-01
2.617994e-01
2.617994e-01
2.617994e-01
3.141593e-01
3.141593e-01
3.141593e-01
3.141593e-01
3.665191e-01
3.665191e-01
3.665191e-01
3.665191e-01
4.188790e-01
4.188790e-01
4.188790e-01
4.188790e-01
4.712389e-01
4.712389e-01
4.712389e-01
4.712389e-01
5.235988e-01
5.235988e-01
5.235988e-01
5.235988e-01
5.759587e-01
5.759587e-01
5.759587e-01
5.759587e-01
6.283185e-01
6.283185e-01
6.283185e-01
6.283185e-01
6.806784e-01
6.806784e-01
6.806784e-01
6.806784e-01
7.330383e-01
7.330383e-01
7.330383e-01
7.330383e-01
7.853982e-01
7.853982e-01
7.853982e-01
7.853982e-01
8.377580e-01
8.377580e-01
8.377580e-01
8.377580e-01
8.901179e-01
8.901179e-01
8.901179e-01
8.901179e-01
9.424778e-01
9.424778e-01
9.424778e-01
9.424778e-01
9.948377e-01
9.948377e-01
9.948377e-01
9.948377e-01
1.047198e+00
1.047198e+00
1.047198e+00
1.047198e+00
1.099557e+00
1.099557e+00
1.099557e+00
1.099557e+00
1.151917e+00
1.151917e+00
1.151917e+00
1.151917e+00
1.204277e+00
1.204277e+00
1.204277e+00
1.204277e+00
1.256637e+00
1.256637e+00
1.256637e+00
1.256637e+00
1.308997e+00
1.308997e+00
1.308997e+00
1.308997e+00
1.361357e+00
1.361357e+00
1.361357e+00
1.361357e+00
1.413717e+00
1.413717e+00
1.413717e+00
1.413717e+00
1.466077e+00
1.466077e+00
1.466077e+00
1.466077e+00
1.518436e+00
1.518436e+00
1.518436e+00
1.518436e+00
1.570796e+00
1.570796e+00
</DataArray>
</PointData>
</Piece></UnstructuredGrid>
</VTKFile>
