<?xml version="1.0"?>
<VTKFile type="UnstructuredGrid" version="0.1" byte_order="LittleEndian" compressor="vtkZLibDataCompressor">
<UnstructuredGrid>
<Piece NumberOfPoints="120" NumberOfCells="30">
<Points>
<DataArray type="Float32" NumberOfComponents="3" format="ascii">
0.000000e+00 9.431784e-01 0.000000e+00
0.000000e+00 1.050000e+00 0.000000e+00
5.667645e-02 9.432988e-01 0.000000e+00
5.854948e-02 1.050000e+00 0.000000e+00
5.667645e-02 9.432988e-01 0.000000e+00
5.854948e-02 1.050000e+00 0.000000e+00
1.131572e-01 9.435070e-01 0.000000e+00
1.173085e-01 1.050000e+00 0.000000e+00
1.131572e-01 9.435070e-01 0.000000e+00
1.173085e-01 1.050000e+00 0.000000e+00
1.691953e-01 9.437360e-01 0.000000e+00
1.764638e-01 1.050000e+00 0.000000e+00
1.691953e-01 9.437360e-01 0.000000e+00
1.764638e-01 1.050000e+00 0.000000e+00
2.244969e-01 9.436461e-01 0.000000e+00
2.360144e-01 1.050000e+00 0.000000e+00
2.244969e-01 9.436461e-01 0.000000e+00
2.360144e-01 1.050000e+00 0.000000e+00
2.791089e-01 9.424455e-01 0.000000e+00
2.950055e-01 1.048981e+00 0.000000e+00
2.791089e-01 9.424455e-01 0.000000e+00
2.950055e-01 1.048981e+00 0.000000e+00
3.327553e-01 9.370272e-01 0.000000e+00
3.536152e-01 1.042273e+00 0.000000e+00
3.327553e-01 9.370272e-01 0.000000e+00
3.536152e-01 1.042273e+00 0.000000e+00
3.853205e-01 9.274454e-01 0.000000e+00
4.121103e-01 1.030880e+00 0.000000e+00
3.853205e-01 9.274454e-01 0.000000e+00
4.121103e-01 1.030880e+00 0.000000e+00
4.368397e-01 9.137723e-01 0.000000e+00
4.698946e-01 1.015038e+00 0.000000e+00
4.368397e-01 9.137723e-01 0.000000e+00
4.698946e-01 1.015038e+00 0.000000e+00
4.872049e-01 8.963527e-01 0.000000e+00
5.265294e-01 9.950818e-01 0.000000e+00
4.872049e-01 8.963527e-01 0.000000e+00
5.265294e-01 9.950818e-01 0.000000e+00
5.362738e-01 8.754330e-01 0.000000e+00
5.816967e-01 9.712837e-01 0.000000e+00
5.362738e-01 8.754330e-01 0.000000e+00
5.816967e-01 9.712837e-01 0.000000e+00
5.839027e-01 8.512409e-01 0.000000e+00
6.351672e-01 9.439053e-01 0.000000e+00
5.839027e-01 8.512409e-01 0.000000e+00
6.351672e-01 9.439053e-01 0.000000e+00
6.299503e-01 8.239814e-01 0.000000e+00
6.867606e-01 9.131849e-01 0.000000e+00
6.299503e-01 8.239814e-01 0.000000e+00
6.867606e-01 9.131849e-01 0.000000e+00
6.742812e-01 7.938455e-01 0.000000e+00
7.363266e-01 8.793417e-01 0.000000e+00
6.742812e-01 7.938455e-01 0.000000e+00
7.363266e-01 8.793417e-01 0.000000e+00
7.167670e-01 7.610126e-01 0.000000e+00
7.837339e-01 8.425789e-01 0.000000e+00
7.167670e-01 7.610126e-01 0.000000e+00
7.837339e-01 8.425789e-01 0.000000e+00
7.572868e-01 7.256542e-01 0.000000e+00
8.288642e-01 8.030874e-01 0.000000e+00
7.572868e-01 7.256542e-01 0.000000e+00
8.288642e-01 8.030874e-01 0.000000e+00
7.957273e-01 6.879356e-01 0.000000e+00
8.716082e-01 7.610489e-01 0.000000e+00
7.957273e-01 6.879356e-01 0.000000e+00
8.716082e-01 7.610489e-01 0.000000e+00
8.319823e-01 6.480178e-01 0.000000e+00
9.118645e-01 7.166387e-01 0.000000e+00
8.319823e-01 6.480178e-01 0.000000e+00
9.118645e-01 7.166387e-01 0.000000e+00
8.659531e-01 6.060588e-01 0.000000e+00
9.495380e-01 6.700276e-01 0.000000e+00
8.659531e-01 6.060588e-01 0.000000e+00
9.495380e-01 6.700276e-01 0.000000e+00
8.975479e-01 5.622147e-01 0.000000e+00
9.845398e-01 6.213837e-01 0.000000e+00
8.975479e-01 5.622147e-01 0.000000e+00
9.845398e-01 6.213837e-01 0.000000e+00
9.266823e-01 5.166406e-01 0.000000e+00
1.016787e+00 5.708738e-01 0.000000e+00
9.266823e-01 5.166406e-01 0.000000e+00
1.016787e+00 5.708738e-01 0.000000e+00
9.532787e-01 4.694913e-01 0.000000e+00
1.046203e+00 5.186641e-01 0.000000e+00
9.532787e-01 4.694913e-01 0.000000e+00
1.046203e+00 5.186641e-01 0.000000e+00
9.772667e-01 4.209215e-01 0.000000e+00
1.072717e+00 4.649211e-01 0.000000e+00
9.772667e-01 4.209215e-01 0.000000e+00
1.072717e+00 4.649211e-01 0.000000e+00
9.985831e-01 3.710866e-01 0.000000e+00
1.096266e+00 4.098115e-01 0.000000e+00
9.985831e-01 3.710866e-01 0.000000e+00
1.096266e+00 4.098115e-01 0.000000e+00
1.017172e+00 3.201423e-01 0.000000e+00
1.116793e+00 3.535034e-01 0.000000e+00
1.017172e+00 3.201423e-01 0.000000e+00
1.116793e+00 3.535034e-01 0.000000e+00
1.032984e+00 2.682453e-01 0.000000e+00
1.134248e+00 2.961653e-01 0.000000e+00
1.032984e+00 2.682453e-01 0.000000e+00
1.134248e+00 2.961653e-01 0.000000e+00
1.045978e+00 2.155529e-01 0.000000e+00
1.148587e+00 2.379672e-01 0.000000e+00
1.045978e+00 2.155529e-01 0.000000e+00
1.148587e+00 2.379672e-01 0.000000e+00
1.056119e+00 1.622232e-01 0.000000e+00
1.159777e+00 1.790798e-01 0.000000e+00
1.056119e+00 1.622232e-01 0.000000e+00
1.159777e+00 1.790798e-01 0.000000e+00
1.063383e+00 1.084150e-01 0.000000e+00
1.167789e+00 1.196745e-01 0.000000e+00
1.063383e+00 1.084150e-01 0.000000e+00
1.167789e+00 1.196745e-01 0.000000e+00
1.067748e+00 5.428736e-02 0.000000e+00
1.172605e+00 5.992372e-02 0.000000e+00
1.067748e+00 5.428736e-02 0.000000e+00
1.172605e+00 5.992372e-02 0.000000e+00
1.069205e+00 5.235460e-12 0.000000e+00
1.174211e+00 5.749630e-12 0.000000e+00
</DataArray>
</Points>
<Cells>
<DataArray type="Int32" Name="connectivity" format="ascii">
0 1 3 2
4 5 7 6
8 9 11 10
12 13 15 14
16 17 19 18
20 21 23 22
24 25 27 26
28 29 31 30
32 33 35 34
36 37 39 38
40 41 43 42
44 45 47 46
48 49 51 50
52 53 55 54
56 57 59 58
60 61 63 62
64 65 67 66
68 69 71 70
72 73 75 74
76 77 79 78
80 81 83 82
84 85 87 86
88 89 91 90
92 93 95 94
96 97 99 98
100 101 103 102
104 105 107 106
108 109 111 110
112 113 115 114
116 117 119 118
</DataArray>
<DataArray type="Int32" Name="offsets" format="ascii">
4
8
12
16
20
24
28
32
36
40
44
48
52
56
60
64
68
72
76
80
84
88
92
96
100
104
108
112
116
120
</DataArray>
<DataArray type="UInt8" Name="types" format="ascii">
9
9
9
9
9
9
9
9
9
9
9
9
9
9
9
9
9
9
9
9
9
9
9
9
9
9
9
9
9
9
</DataArray>
</Cells>
<PointData>
<DataArray type="Float32" Name="V1" format="ascii">
9.447051e+01
-1.629542e+01
9.481895e+01
-1.594698e+01
9.295932e+01
-1.485064e+01
9.360082e+01
-1.420915e+01
8.956086e+01
-1.149400e+01
9.080768e+01
-1.024718e+01
8.346809e+01
-4.983923e+00
8.608061e+01
-2.371396e+00
7.412167e+01
7.972562e+00
7.868719e+01
1.253808e+01
6.888123e+01
1.966316e+01
7.101159e+01
2.179351e+01
6.619956e+01
2.481720e+01
6.736122e+01
2.597885e+01
6.486132e+01
2.783914e+01
6.580827e+01
2.878609e+01
6.457804e+01
2.975190e+01
6.539399e+01
3.056785e+01
6.486342e+01
3.099265e+01
6.556858e+01
3.169782e+01
6.544304e+01
3.180194e+01
6.605029e+01
3.240918e+01
6.615060e+01
3.233318e+01
6.667171e+01
3.285429e+01
6.689115e+01
3.268375e+01
6.733742e+01
3.313003e+01
6.761170e+01
3.291656e+01
6.799355e+01
3.329841e+01
6.828465e+01
3.307231e+01
6.861135e+01
3.339900e+01
6.889739e+01
3.317748e+01
6.917697e+01
3.345705e+01
6.944598e+01
3.324934e+01
6.968527e+01
3.348863e+01
6.993135e+01
3.329919e+01
7.013612e+01
3.350396e+01
7.035694e+01
3.333439e+01
7.053202e+01
3.350947e+01
7.072736e+01
3.335981e+01
7.087677e+01
3.350922e+01
7.104754e+01
3.337865e+01
7.117462e+01
3.350574e+01
7.132229e+01
3.339303e+01
7.142982e+01
3.350056e+01
7.155605e+01
3.340434e+01
7.164632e+01
3.349461e+01
7.175280e+01
3.341355e+01
7.182767e+01
3.348843e+01
7.191595e+01
3.342129e+01
7.197697e+01
3.348230e+01
7.204842e+01
3.342801e+01
7.209679e+01
3.347638e+01
7.215256e+01
3.343403e+01
7.218925e+01
3.347071e+01
7.223027e+01
3.343957e+01
7.225598e+01
3.346528e+01
7.228295e+01
3.344482e+01
7.229818e+01
3.346005e+01
7.231155e+01
3.344991e+01
7.231660e+01
3.345495e+01
</DataArray>
<DataArray type="Float32" Name="V2" format="ascii">
9.431784e-01
1.050000e+00
9.449723e-01
1.051625e+00
9.449723e-01
1.051625e+00
9.501665e-01
1.056510e+00
9.501665e-01
1.056510e+00
9.585850e-01
1.064678e+00
9.585850e-01
1.064678e+00
9.697007e-01
1.076125e+00
9.697007e-01
1.076125e+00
9.825712e-01
1.089591e+00
9.825712e-01
1.089591e+00
9.939929e-01
1.100534e+00
9.939929e-01
1.100534e+00
1.003931e+00
1.110096e+00
1.003931e+00
1.110096e+00
1.012451e+00
1.118407e+00
1.012451e+00
1.118407e+00
1.019843e+00
1.125664e+00
1.019843e+00
1.125664e+00
1.026284e+00
1.132005e+00
1.026284e+00
1.132005e+00
1.031927e+00
1.137562e+00
1.031927e+00
1.137562e+00
1.036890e+00
1.142450e+00
1.036890e+00
1.142450e+00
1.041273e+00
1.146762e+00
1.041273e+00
1.146762e+00
1.045153e+00
1.150578e+00
1.045153e+00
1.150578e+00
1.048598e+00
1.153964e+00
1.048598e+00
1.153964e+00
1.051659e+00
1.156972e+00
1.051659e+00
1.156972e+00
1.054383e+00
1.159647e+00
1.054383e+00
1.159647e+00
1.056803e+00
1.162025e+00
1.056803e+00
1.162025e+00
1.058951e+00
1.164134e+00
1.058951e+00
1.164134e+00
1.060851e+00
1.166000e+00
1.060851e+00
1.166000e+00
1.062522e+00
1.167642e+00
1.062522e+00
1.167642e+00
1.063982e+00
1.169077e+00
1.063982e+00
1.169077e+00
1.065243e+00
1.170316e+00
1.065243e+00
1.170316e+00
1.066317e+00
1.171372e+00
1.066317e+00
1.171372e+00
1.067213e+00
1.172252e+00
1.067213e+00
1.172252e+00
1.067936e+00
1.172964e+00
1.067936e+00
1.172964e+00
1.068494e+00
1.173512e+00
1.068494e+00
1.173512e+00
1.068890e+00
1.173902e+00
1.068890e+00
1.173902e+00
1.069126e+00
1.174134e+00
1.069126e+00
1.174134e+00
1.069205e+00
1.174211e+00
</DataArray>
<DataArray type="Float32" Name="V3" format="ascii">
0.000000e+00
0.000000e+00
7.230325e-03
3.516482e-03
7.230325e-03
3.516482e-03
1.391402e-02
6.910962e-03
1.391402e-02
6.910962e-03
1.947945e-02
1.003502e-02
1.947945e-02
1.003502e-02
2.339606e-02
1.254961e-02
2.339606e-02
1.254961e-02
2.567565e-02
1.345708e-02
2.567565e-02
1.345708e-02
2.691181e-02
1.422799e-02
2.691181e-02
1.422799e-02
2.736096e-02
1.530375e-02
2.736096e-02
1.530375e-02
2.740828e-02
1.641705e-02
2.740828e-02
1.641705e-02
2.716710e-02
1.738344e-02
2.716710e-02
1.738344e-02
2.671025e-02
1.812221e-02
2.671025e-02
1.812221e-02
2.608304e-02
1.860834e-02
2.608304e-02
1.860834e-02
2.531635e-02
1.884437e-02
2.531635e-02
1.884437e-02
2.443173e-02
1.884559e-02
2.443173e-02
1.884559e-02
2.344484e-02
1.863249e-02
2.344484e-02
1.863249e-02
2.236764e-02
1.822691e-02
2.236764e-02
1.822691e-02
2.120969e-02
1.765014e-02
2.120969e-02
1.765014e-02
1.997900e-02
1.692205e-02
1.997900e-02
1.692205e-02
1.868258e-02
1.606076e-02
1.868258e-02
1.606076e-02
1.732672e-02
1.508261e-02
1.732672e-02
1.508261e-02
1.591726e-02
1.400232e-02
1.591726e-02
1.400232e-02
1.445968e-02
1.283312e-02
1.445968e-02
1.283312e-02
1.295924e-02
1.158696e-02
1.295924e-02
1.158696e-02
1.142100e-02
1.027471e-02
1.142100e-02
1.027471e-02
9.849909e-03
8.906348e-03
9.849909e-03
8.906348e-03
8.250792e-03
7.491109e-03
8.250792e-03
7.491109e-03
6.628418e-03
6.037633e-03
6.628418e-03
6.037633e-03
4.987496e-03
4.554089e-03
4.987496e-03
4.554089e-03
3.332695e-03
3.048293e-03
3.332695e-03
3.048293e-03
1.668655e-03
1.527800e-03
1.668655e-03
1.527800e-03
0.000000e+00
0.000000e+00
</DataArray>
<DataArray type="Float32" Name="V4" format="ascii">
8.500000e-01
1.000000e+00
8.500000e-01
1.000000e+00
8.500000e-01
1.000000e+00
8.500000e-01
1.000000e+00
8.500000e-01
1.000000e+00
8.500000e-01
1.000000e+00
8.500000e-01
1.000000e+00
8.500000e-01
1.000000e+00
8.500000e-01
1.000000e+00
8.500000e-01
1.000000e+00
8.500000e-01
1.000000e+00
8.500000e-01
1.000000e+00
8.500000e-01
1.000000e+00
8.500000e-01
1.000000e+00
8.500000e-01
1.000000e+00
8.500000e-01
1.000000e+00
8.500000e-01
1.000000e+00
8.500000e-01
1.000000e+00
8.500000e-01
1.000000e+00
8.500000e-01
1.000000e+00
8.500000e-01
1.000000e+00
8.500000e-01
1.000000e+00
8.500000e-01
1.000000e+00
8.500000e-01
1.000000e+00
8.500000e-01
1.000000e+00
8.500000e-01
1.000000e+00
8.500000e-01
1.000000e+00
8.500000e-01
1.000000e+00
8.500000e-01
1.000000e+00
8.500000e-01
1.000000e+00
8.500000e-01
1.000000e+00
8.500000e-01
1.000000e+00
8.500000e-01
1.000000e+00
8.500000e-01
1.000000e+00
8.500000e-01
1.000000e+00
8.500000e-01
1.000000e+00
8.500000e-01
1.000000e+00
8.500000e-01
1.000000e+00
8.500000e-01
1.000000e+00
8.500000e-01
1.000000e+00
8.500000e-01
1.000000e+00
8.500000e-01
1.000000e+00
8.500000e-01
1.000000e+00
8.500000e-01
1.000000e+00
8.500000e-01
1.000000e+00
8.500000e-01
1.000000e+00
8.500000e-01
1.000000e+00
8.500000e-01
1.000000e+00
8.500000e-01
1.000000e+00
8.500000e-01
1.000000e+00
8.500000e-01
1.000000e+00
8.500000e-01
1.000000e+00
8.500000e-01
1.000000e+00
8.500000e-01
1.000000e+00
8.500000e-01
1.000000e+00
8.500000e-01
1.000000e+00
8.500000e-01
1.000000e+00
8.500000e-01
1.000000e+00
8.500000e-01
1.000000e+00
8.500000e-01
1.000000e+00
</DataArray>
<DataArray type="Float32" Name="V5" format="ascii">
0.000000e+00
0.000000e+00
5.235988e-02
5.235988e-02
5.235988e-02
5.235988e-02
1.047198e-01
1.047198e-01
1.047198e-01
1.047198e-01
1.570796e-01
1.570796e-01
1.570796e-01
1.570796e-01
2.094395e-01
2.094395e-01
2.094395e-01
2.094395e-01
2.617994e-01
2.617994e-01
2.617994e-01
2.617994e-01
3.141593e-01
3.141593e-01
3.141593e-01
3.141593e-01
3.665191e-01
3.665191e-01
3.665191e-01
3.665191e-01
4.188790e-01
4.188790e-01
4.188790e-01
4.188790e-01
4.712389e-01
4.712389e-01
4.712389e-01
4.712389e-01
5.235988e-01
5.235988e-01
5.235988e-01
5.235988e-01
5.759587e-01
5.759587e-01
5.759587e-01
5.759587e-01
6.283185e-01
6.283185e-01
6.283185e-01
6.283185e-01
6.806784e-01
6.806784e-01
6.806784e-01
6.806784e-01
7.330383e-01
7.330383e-01
7.330383e-01
7.330383e-01
7.853982e-01
7.853982e-01
7.853982e-01
7.853982e-01
8.377580e-01
8.377580e-01
8.377580e-01
8.377580e-01
8.901179e-01
8.901179e-01
8.901179e-01
8.901179e-01
9.424778e-01
9.424778e-01
9.424778e-01
9.424778e-01
9.948377e-01
9.948377e-01
9.948377e-01
9.948377e-01
1.047198e+00
1.047198e+00
1.047198e+00
1.047198e+00
1.099557e+00
1.099557e+00
1.099557e+00
1.099557e+00
1.151917e+00
1.151917e+00
1.151917e+00
1.151917e+00
1.204277e+00
1.204277e+00
1.204277e+00
1.204277e+00
1.256637e+00
1.256637e+00
1.256637e+00
1.256637e+00
1.308997e+00
1.308997e+00
1.308997e+00
1.308997e+00
1.361357e+00
1.361357e+00
1.361357e+00
1.361357e+00
1.413717e+00
1.413717e+00
1.413717e+00
1.413717e+00
1.466077e+00
1.466077e+00
1.466077e+00
1.466077e+00
1.518436e+00
1.518436e+00
1.518436e+00
1.518436e+00
1.570796e+00
1.570796e+00
</DataArray>
</PointData>
</Piece></UnstructuredGrid>
</VTKFile>
