<?xml version="1.0"?>
<VTKFile type="UnstructuredGrid" version="0.1" byte_order="LittleEndian" compressor="vtkZLibDataCompressor">
<UnstructuredGrid>
<Piece NumberOfPoints="120" NumberOfCells="30">
<Points>
<DataArray type="Float32" NumberOfComponents="3" format="ascii">
0.000000e+00 9.172595e-01 0.000000e+00
0.000000e+00 1.050000e+00 0.000000e+00
4.800565e-02 9.160024e-01 0.000000e+00
5.495275e-02 1.048561e+00 0.000000e+00
4.800565e-02 9.160024e-01 0.000000e+00
5.495275e-02 1.048561e+00 0.000000e+00
9.587972e-02 9.122346e-01 0.000000e+00
1.097549e-01 1.044248e+00 0.000000e+00
9.587972e-02 9.122346e-01 0.000000e+00
1.097549e-01 1.044248e+00 0.000000e+00
1.434910e-01 9.059665e-01 0.000000e+00
1.642562e-01 1.037073e+00 0.000000e+00
1.434910e-01 9.059665e-01 0.000000e+00
1.642562e-01 1.037073e+00 0.000000e+00
1.907090e-01 8.972152e-01 0.000000e+00
2.183073e-01 1.027055e+00 0.000000e+00
1.907090e-01 8.972152e-01 0.000000e+00
2.183073e-01 1.027055e+00 0.000000e+00
2.374042e-01 8.860046e-01 0.000000e+00
2.717600e-01 1.014222e+00 0.000000e+00
2.374042e-01 8.860046e-01 0.000000e+00
2.717600e-01 1.014222e+00 0.000000e+00
2.834488e-01 8.723656e-01 0.000000e+00
3.244678e-01 9.986093e-01 0.000000e+00
2.834488e-01 8.723656e-01 0.000000e+00
3.244678e-01 9.986093e-01 0.000000e+00
3.287164e-01 8.563355e-01 0.000000e+00
3.762863e-01 9.802594e-01 0.000000e+00
3.287164e-01 8.563355e-01 0.000000e+00
3.762863e-01 9.802594e-01 0.000000e+00
3.730830e-01 8.379582e-01 0.000000e+00
4.270734e-01 9.592227e-01 0.000000e+00
3.730830e-01 8.379582e-01 0.000000e+00
4.270734e-01 9.592227e-01 0.000000e+00
4.164271e-01 8.172842e-01 0.000000e+00
4.766900e-01 9.355568e-01 0.000000e+00
4.164271e-01 8.172842e-01 0.000000e+00
4.766900e-01 9.355568e-01 0.000000e+00
4.586297e-01 7.943700e-01 0.000000e+00
5.250000e-01 9.093266e-01 0.000000e+00
4.586297e-01 7.943700e-01 0.000000e+00
5.250000e-01 9.093266e-01 0.000000e+00
4.995753e-01 7.692785e-01 0.000000e+00
5.718710e-01 8.806040e-01 0.000000e+00
4.995753e-01 7.692785e-01 0.000000e+00
5.718710e-01 8.806040e-01 0.000000e+00
5.391516e-01 7.420785e-01 0.000000e+00
6.171745e-01 8.494678e-01 0.000000e+00
5.391516e-01 7.420785e-01 0.000000e+00
6.171745e-01 8.494678e-01 0.000000e+00
5.772501e-01 7.128445e-01 0.000000e+00
6.607864e-01 8.160032e-01 0.000000e+00
5.772501e-01 7.128445e-01 0.000000e+00
6.607864e-01 8.160032e-01 0.000000e+00
6.137664e-01 6.816566e-01 0.000000e+00
7.025871e-01 7.803020e-01 0.000000e+00
6.137664e-01 6.816566e-01 0.000000e+00
7.025871e-01 7.803020e-01 0.000000e+00
6.486004e-01 6.486004e-01 0.000000e+00
7.424621e-01 7.424621e-01 0.000000e+00
6.486004e-01 6.486004e-01 0.000000e+00
7.424621e-01 7.424621e-01 0.000000e+00
6.816566e-01 6.137664e-01 0.000000e+00
7.803020e-01 7.025871e-01 0.000000e+00
6.816566e-01 6.137664e-01 0.000000e+00
7.803020e-01 7.025871e-01 0.000000e+00
7.128445e-01 5.772501e-01 0.000000e+00
8.160032e-01 6.607864e-01 0.000000e+00
7.128445e-01 5.772501e-01 0.000000e+00
8.160032e-01 6.607864e-01 0.000000e+00
7.420785e-01 5.391516e-01 0.000000e+00
8.494678e-01 6.171745e-01 0.000000e+00
7.420785e-01 5.391516e-01 0.000000e+00
8.494678e-01 6.171745e-01 0.000000e+00
7.692785e-01 4.995753e-01 0.000000e+00
8.806040e-01 5.718710e-01 0.000000e+00
7.692785e-01 4.995753e-01 0.000000e+00
8.806040e-01 5.718710e-01 0.000000e+00
7.943700e-01 4.586297e-01 0.000000e+00
9.093266e-01 5.250000e-01 0.000000e+00
7.943700e-01 4.586297e-01 0.000000e+00
9.093266e-01 5.250000e-01 0.000000e+00
8.172842e-01 4.164271e-01 0.000000e+00
9.355568e-01 4.766900e-01 0.000000e+00
8.172842e-01 4.164271e-01 0.000000e+00
9.355568e-01 4.766900e-01 0.000000e+00
8.379582e-01 3.730830e-01 0.000000e+00
9.592227e-01 4.270734e-01 0.000000e+00
8.379582e-01 3.730830e-01 0.000000e+00
9.592227e-01 4.270734e-01 0.000000e+00
8.563355e-01 3.287164e-01 0.000000e+00
9.802594e-01 3.762863e-01 0.000000e+00
8.563355e-01 3.287164e-01 0.000000e+00
9.802594e-01 3.762863e-01 0.000000e+00
8.723656e-01 2.834488e-01 0.000000e+00
9.986093e-01 3.244678e-01 0.000000e+00
8.723656e-01 2.834488e-01 0.000000e+00
9.986093e-01 3.244678e-01 0.000000e+00
8.860046e-01 2.374042e-01 0.000000e+00
1.014222e+00 2.717600e-01 0.000000e+00
8.860046e-01 2.374042e-01 0.000000e+00
1.014222e+00 2.717600e-01 0.000000e+00
8.972152e-01 1.907090e-01 0.000000e+00
1.027055e+00 2.183073e-01 0.000000e+00
8.972152e-01 1.907090e-01 0.000000e+00
1.027055e+00 2.183073e-01 0.000000e+00
9.059665e-01 1.434910e-01 0.000000e+00
1.037073e+00 1.642562e-01 0.000000e+00
9.059665e-01 1.434910e-01 0.000000e+00
1.037073e+00 1.642562e-01 0.000000e+00
9.122346e-01 9.587972e-02 0.000000e+00
1.044248e+00 1.097549e-01 0.000000e+00
9.122346e-01 9.587972e-02 0.000000e+00
1.044248e+00 1.097549e-01 0.000000e+00
9.160024e-01 4.800565e-02 0.000000e+00
1.048561e+00 5.495275e-02 0.000000e+00
9.160024e-01 4.800565e-02 0.000000e+00
1.048561e+00 5.495275e-02 0.000000e+00
9.172595e-01 4.491440e-12 0.000000e+00
1.050000e+00 5.141420e-12 0.000000e+00
</DataArray>
</Points>
<Cells>
<DataArray type="Int32" Name="connectivity" format="ascii">
0 1 3 2
4 5 7 6
8 9 11 10
12 13 15 14
16 17 19 18
20 21 23 22
24 25 27 26
28 29 31 30
32 33 35 34
36 37 39 38
40 41 43 42
44 45 47 46
48 49 51 50
52 53 55 54
56 57 59 58
60 61 63 62
64 65 67 66
68 69 71 70
72 73 75 74
76 77 79 78
80 81 83 82
84 85 87 86
88 89 91 90
92 93 95 94
96 97 99 98
100 101 103 102
104 105 107 106
108 109 111 110
112 113 115 114
116 117 119 118
</DataArray>
<DataArray type="Int32" Name="offsets" format="ascii">
4
8
12
16
20
24
28
32
36
40
44
48
52
56
60
64
68
72
76
80
84
88
92
96
100
104
108
112
116
120
</DataArray>
<DataArray type="UInt8" Name="types" format="ascii">
9
9
9
9
9
9
9
9
9
9
9
9
9
9
9
9
9
9
9
9
9
9
9
9
9
9
9
9
9
9
</DataArray>
</Cells>
<PointData>
<DataArray type="Float32" Name="V1" format="ascii">
5.710749e+00
3.578189e+00
5.710749e+00
3.578189e+00
5.710749e+00
3.578189e+00
5.710749e+00
3.578189e+00
5.710749e+00
3.578189e+00
5.710749e+00
3.578189e+00
5.710749e+00
3.578189e+00
5.710749e+00
3.578189e+00
5.710749e+00
3.578189e+00
5.710749e+00
3.578189e+00
5.710749e+00
3.578189e+00
5.710749e+00
3.578189e+00
5.710749e+00
3.578189e+00
5.710749e+00
3.578189e+00
5.710749e+00
3.578189e+00
5.710749e+00
3.578189e+00
5.710749e+00
3.578189e+00
5.710749e+00
3.578189e+00
5.710749e+00
3.578189e+00
5.710749e+00
3.578189e+00
5.710749e+00
3.578189e+00
5.710749e+00
3.578189e+00
5.710749e+00
3.578189e+00
5.710749e+00
3.578189e+00
5.710749e+00
3.578189e+00
5.710749e+00
3.578189e+00
5.710749e+00
3.578189e+00
5.710749e+00
3.578189e+00
5.710749e+00
3.578189e+00
5.710749e+00
3.578189e+00
5.710749e+00
3.578189e+00
5.710749e+00
3.578189e+00
5.710749e+00
3.578189e+00
5.710749e+00
3.578189e+00
5.710749e+00
3.578189e+00
5.710749e+00
3.578189e+00
5.710749e+00
3.578189e+00
5.710749e+00
3.578189e+00
5.710749e+00
3.578189e+00
5.710749e+00
3.578189e+00
5.710749e+00
3.578189e+00
5.710749e+00
3.578189e+00
5.710749e+00
3.578189e+00
5.710749e+00
3.578189e+00
5.710749e+00
3.578189e+00
5.710749e+00
3.578189e+00
5.710749e+00
3.578189e+00
5.710749e+00
3.578189e+00
5.710749e+00
3.578189e+00
5.710749e+00
3.578189e+00
5.710749e+00
3.578189e+00
5.710749e+00
3.578189e+00
5.710749e+00
3.578189e+00
5.710749e+00
3.578189e+00
5.710749e+00
3.578189e+00
5.710749e+00
3.578189e+00
5.710749e+00
3.578189e+00
5.710749e+00
3.578189e+00
5.710749e+00
3.578189e+00
5.710749e+00
3.578189e+00
</DataArray>
<DataArray type="Float32" Name="V2" format="ascii">
9.172595e-01
1.050000e+00
9.172595e-01
1.050000e+00
9.172595e-01
1.050000e+00
9.172595e-01
1.050000e+00
9.172595e-01
1.050000e+00
9.172595e-01
1.050000e+00
9.172595e-01
1.050000e+00
9.172595e-01
1.050000e+00
9.172595e-01
1.050000e+00
9.172595e-01
1.050000e+00
9.172595e-01
1.050000e+00
9.172595e-01
1.050000e+00
9.172595e-01
1.050000e+00
9.172595e-01
1.050000e+00
9.172595e-01
1.050000e+00
9.172595e-01
1.050000e+00
9.172595e-01
1.050000e+00
9.172595e-01
1.050000e+00
9.172595e-01
1.050000e+00
9.172595e-01
1.050000e+00
9.172595e-01
1.050000e+00
9.172595e-01
1.050000e+00
9.172595e-01
1.050000e+00
9.172595e-01
1.050000e+00
9.172595e-01
1.050000e+00
9.172595e-01
1.050000e+00
9.172595e-01
1.050000e+00
9.172595e-01
1.050000e+00
9.172595e-01
1.050000e+00
9.172595e-01
1.050000e+00
9.172595e-01
1.050000e+00
9.172595e-01
1.050000e+00
9.172595e-01
1.050000e+00
9.172595e-01
1.050000e+00
9.172595e-01
1.050000e+00
9.172595e-01
1.050000e+00
9.172595e-01
1.050000e+00
9.172595e-01
1.050000e+00
9.172595e-01
1.050000e+00
9.172595e-01
1.050000e+00
9.172595e-01
1.050000e+00
9.172595e-01
1.050000e+00
9.172595e-01
1.050000e+00
9.172595e-01
1.050000e+00
9.172595e-01
1.050000e+00
9.172595e-01
1.050000e+00
9.172595e-01
1.050000e+00
9.172595e-01
1.050000e+00
9.172595e-01
1.050000e+00
9.172595e-01
1.050000e+00
9.172595e-01
1.050000e+00
9.172595e-01
1.050000e+00
9.172595e-01
1.050000e+00
9.172595e-01
1.050000e+00
9.172595e-01
1.050000e+00
9.172595e-01
1.050000e+00
9.172595e-01
1.050000e+00
9.172595e-01
1.050000e+00
9.172595e-01
1.050000e+00
9.172595e-01
1.050000e+00
</DataArray>
<DataArray type="Float32" Name="V3" format="ascii">
0.000000e+00
0.000000e+00
2.651280e-12
-4.619740e-12
2.651280e-12
-4.619740e-12
1.718830e-12
-3.181650e-12
1.718830e-12
-3.181650e-12
1.470900e-12
-2.557550e-12
1.470900e-12
-2.557550e-12
1.327540e-12
-2.178340e-12
1.327540e-12
-2.178340e-12
1.232000e-12
-1.949290e-12
1.232000e-12
-1.949290e-12
1.158120e-12
-1.803940e-12
1.158120e-12
-1.803940e-12
1.099770e-12
-1.709990e-12
1.099770e-12
-1.709990e-12
1.053060e-12
-1.650370e-12
1.053060e-12
-1.650370e-12
1.014710e-12
-1.614520e-12
1.014710e-12
-1.614520e-12
9.840800e-13
-1.595460e-12
9.840800e-13
-1.595460e-12
9.579800e-13
-1.591600e-12
9.579800e-13
-1.591600e-12
9.365500e-13
-1.599720e-12
9.365500e-13
-1.599720e-12
9.185900e-13
-1.617050e-12
9.185900e-13
-1.617050e-12
9.020600e-13
-1.644900e-12
9.020600e-13
-1.644900e-12
8.861100e-13
-1.683500e-12
8.861100e-13
-1.683500e-12
8.703600e-13
-1.733000e-12
8.703600e-13
-1.733000e-12
8.520400e-13
-1.795350e-12
8.520400e-13
-1.795350e-12
8.302400e-13
-1.871820e-12
8.302400e-13
-1.871820e-12
8.029800e-13
-1.963200e-12
8.029800e-13
-1.963200e-12
7.679300e-13
-2.073110e-12
7.679300e-13
-2.073110e-12
7.230100e-13
-2.202160e-12
7.230100e-13
-2.202160e-12
6.643700e-13
-2.353490e-12
6.643700e-13
-2.353490e-12
5.899100e-13
-2.527790e-12
5.899100e-13
-2.527790e-12
4.929700e-13
-2.728640e-12
4.929700e-13
-2.728640e-12
3.701700e-13
-2.957270e-12
3.701700e-13
-2.957270e-12
2.162200e-13
-3.204520e-12
2.162200e-13
-3.204520e-12
5.557000e-14
-3.467080e-12
5.557000e-14
-3.467080e-12
-1.184500e-13
-3.538160e-12
-1.184500e-13
-3.538160e-12
2.841000e-13
-3.434710e-12
2.841000e-13
-3.434710e-12
0.000000e+00
0.000000e+00
</DataArray>
<DataArray type="Float32" Name="V4" format="ascii">
8.500000e-01
1.000000e+00
8.500000e-01
1.000000e+00
8.500000e-01
1.000000e+00
8.500000e-01
1.000000e+00
8.500000e-01
1.000000e+00
8.500000e-01
1.000000e+00
8.500000e-01
1.000000e+00
8.500000e-01
1.000000e+00
8.500000e-01
1.000000e+00
8.500000e-01
1.000000e+00
8.500000e-01
1.000000e+00
8.500000e-01
1.000000e+00
8.500000e-01
1.000000e+00
8.500000e-01
1.000000e+00
8.500000e-01
1.000000e+00
8.500000e-01
1.000000e+00
8.500000e-01
1.000000e+00
8.500000e-01
1.000000e+00
8.500000e-01
1.000000e+00
8.500000e-01
1.000000e+00
8.500000e-01
1.000000e+00
8.500000e-01
1.000000e+00
8.500000e-01
1.000000e+00
8.500000e-01
1.000000e+00
8.500000e-01
1.000000e+00
8.500000e-01
1.000000e+00
8.500000e-01
1.000000e+00
8.500000e-01
1.000000e+00
8.500000e-01
1.000000e+00
8.500000e-01
1.000000e+00
8.500000e-01
1.000000e+00
8.500000e-01
1.000000e+00
8.500000e-01
1.000000e+00
8.500000e-01
1.000000e+00
8.500000e-01
1.000000e+00
8.500000e-01
1.000000e+00
8.500000e-01
1.000000e+00
8.500000e-01
1.000000e+00
8.500000e-01
1.000000e+00
8.500000e-01
1.000000e+00
8.500000e-01
1.000000e+00
8.500000e-01
1.000000e+00
8.500000e-01
1.000000e+00
8.500000e-01
1.000000e+00
8.500000e-01
1.000000e+00
8.500000e-01
1.000000e+00
8.500000e-01
1.000000e+00
8.500000e-01
1.000000e+00
8.500000e-01
1.000000e+00
8.500000e-01
1.000000e+00
8.500000e-01
1.000000e+00
8.500000e-01
1.000000e+00
8.500000e-01
1.000000e+00
8.500000e-01
1.000000e+00
8.500000e-01
1.000000e+00
8.500000e-01
1.000000e+00
8.500000e-01
1.000000e+00
8.500000e-01
1.000000e+00
8.500000e-01
1.000000e+00
8.500000e-01
1.000000e+00
</DataArray>
<DataArray type="Float32" Name="V5" format="ascii">
0.000000e+00
0.000000e+00
5.235988e-02
5.235988e-02
5.235988e-02
5.235988e-02
1.047198e-01
1.047198e-01
1.047198e-01
1.047198e-01
1.570796e-01
1.570796e-01
1.570796e-01
1.570796e-01
2.094395e-01
2.094395e-01
2.094395e-01
2.094395e-01
2.617994e-01
2.617994e-01
2.617994e-01
2.617994e-01
3.141593e-01
3.141593e-01
3.141593e-01
3.141593e-01
3.665191e-01
3.665191e-01
3.665191e-01
3.665191e-01
4.188790e-01
4.188790e-01
4.188790e-01
4.188790e-01
4.712389e-01
4.712389e-01
4.712389e-01
4.712389e-01
5.235988e-01
5.235988e-01
5.235988e-01
5.235988e-01
5.759587e-01
5.759587e-01
5.759587e-01
5.759587e-01
6.283185e-01
6.283185e-01
6.283185e-01
6.283185e-01
6.806784e-01
6.806784e-01
6.806784e-01
6.806784e-01
7.330383e-01
7.330383e-01
7.330383e-01
7.330383e-01
7.853982e-01
7.853982e-01
7.853982e-01
7.853982e-01
8.377580e-01
8.377580e-01
8.377580e-01
8.377580e-01
8.901179e-01
8.901179e-01
8.901179e-01
8.901179e-01
9.424778e-01
9.424778e-01
9.424778e-01
9.424778e-01
9.948377e-01
9.948377e-01
9.948377e-01
9.948377e-01
1.047198e+00
1.047198e+00
1.047198e+00
1.047198e+00
1.099557e+00
1.099557e+00
1.099557e+00
1.099557e+00
1.151917e+00
1.151917e+00
1.151917e+00
1.151917e+00
1.204277e+00
1.204277e+00
1.204277e+00
1.204277e+00
1.256637e+00
1.256637e+00
1.256637e+00
1.256637e+00
1.308997e+00
1.308997e+00
1.308997e+00
1.308997e+00
1.361357e+00
1.361357e+00
1.361357e+00
1.361357e+00
1.413717e+00
1.413717e+00
1.413717e+00
1.413717e+00
1.466077e+00
1.466077e+00
1.466077e+00
1.466077e+00
1.518436e+00
1.518436e+00
1.518436e+00
1.518436e+00
1.570796e+00
1.570796e+00
</DataArray>
</PointData>
</Piece></UnstructuredGrid>
</VTKFile>
