<?xml version="1.0"?>
<VTKFile type="UnstructuredGrid" version="0.1" byte_order="LittleEndian" compressor="vtkZLibDataCompressor">
<UnstructuredGrid>
<Piece NumberOfPoints="120" NumberOfCells="30">
<Points>
<DataArray type="Float32" NumberOfComponents="3" format="ascii">
0.000000e+00 6.182017e-01 0.000000e+00
0.000000e+00 7.100000e-01 0.000000e+00
6.198878e-02 6.182449e-01 0.000000e+00
6.199118e-02 7.100000e-01 0.000000e+00
6.198878e-02 6.182449e-01 0.000000e+00
6.199118e-02 7.100000e-01 0.000000e+00
1.239648e-01 6.183328e-01 0.000000e+00
1.239706e-01 7.100000e-01 0.000000e+00
1.239648e-01 6.183328e-01 0.000000e+00
1.239706e-01 7.100000e-01 0.000000e+00
1.859127e-01 6.184797e-01 0.000000e+00
1.859281e-01 7.100000e-01 0.000000e+00
1.859127e-01 6.184797e-01 0.000000e+00
1.859281e-01 7.100000e-01 0.000000e+00
2.478178e-01 6.186855e-01 0.000000e+00
2.478535e-01 7.100000e-01 0.000000e+00
2.478178e-01 6.186855e-01 0.000000e+00
2.478535e-01 7.100000e-01 0.000000e+00
3.096643e-01 6.189506e-01 0.000000e+00
3.097390e-01 7.100000e-01 0.000000e+00
3.096643e-01 6.189506e-01 0.000000e+00
3.097390e-01 7.100000e-01 0.000000e+00
3.714342e-01 6.192756e-01 0.000000e+00
3.715806e-01 7.100000e-01 0.000000e+00
3.714342e-01 6.192756e-01 0.000000e+00
3.715806e-01 7.100000e-01 0.000000e+00
4.331055e-01 6.196622e-01 0.000000e+00
4.333816e-01 7.100000e-01 0.000000e+00
4.331055e-01 6.196622e-01 0.000000e+00
4.333816e-01 7.100000e-01 0.000000e+00
4.946495e-01 6.201132e-01 0.000000e+00
4.951577e-01 7.100000e-01 0.000000e+00
4.946495e-01 6.201132e-01 0.000000e+00
4.951577e-01 7.100000e-01 0.000000e+00
5.560247e-01 6.206336e-01 0.000000e+00
5.569468e-01 7.100000e-01 0.000000e+00
5.560247e-01 6.206336e-01 0.000000e+00
5.569468e-01 7.100000e-01 0.000000e+00
6.171651e-01 6.212298e-01 0.000000e+00
6.188244e-01 7.100000e-01 0.000000e+00
6.171651e-01 6.212298e-01 0.000000e+00
6.188244e-01 7.100000e-01 0.000000e+00
6.779571e-01 6.219076e-01 0.000000e+00
6.809252e-01 7.100000e-01 0.000000e+00
6.779571e-01 6.219076e-01 0.000000e+00
6.809252e-01 7.100000e-01 0.000000e+00
7.381915e-01 6.226556e-01 0.000000e+00
7.434654e-01 7.100000e-01 0.000000e+00
7.381915e-01 6.226556e-01 0.000000e+00
7.434654e-01 7.100000e-01 0.000000e+00
7.974712e-01 6.233655e-01 0.000000e+00
8.067241e-01 7.100000e-01 0.000000e+00
7.974712e-01 6.233655e-01 0.000000e+00
8.067241e-01 7.100000e-01 0.000000e+00
8.552026e-01 6.236693e-01 0.000000e+00
8.706478e-01 7.100000e-01 0.000000e+00
8.552026e-01 6.236693e-01 0.000000e+00
8.706478e-01 7.100000e-01 0.000000e+00
9.116875e-01 6.213639e-01 0.000000e+00
9.326448e-01 7.066473e-01 0.000000e+00
9.116875e-01 6.213639e-01 0.000000e+00
9.326448e-01 7.066473e-01 0.000000e+00
9.656269e-01 6.103925e-01 0.000000e+00
9.937576e-01 6.924150e-01 0.000000e+00
9.656269e-01 6.103925e-01 0.000000e+00
9.937576e-01 6.924150e-01 0.000000e+00
1.016994e+00 5.924600e-01 0.000000e+00
1.053088e+00 6.703158e-01 0.000000e+00
1.016994e+00 5.924600e-01 0.000000e+00
1.053088e+00 6.703158e-01 0.000000e+00
1.065455e+00 5.680088e-01 0.000000e+00
1.109273e+00 6.409091e-01 0.000000e+00
1.065455e+00 5.680088e-01 0.000000e+00
1.109273e+00 6.409091e-01 0.000000e+00
1.110726e+00 5.379011e-01 0.000000e+00
1.161580e+00 6.052397e-01 0.000000e+00
1.110726e+00 5.379011e-01 0.000000e+00
1.161580e+00 6.052397e-01 0.000000e+00
1.152554e+00 5.028438e-01 0.000000e+00
1.209579e+00 5.642343e-01 0.000000e+00
1.152554e+00 5.028438e-01 0.000000e+00
1.209579e+00 5.642343e-01 0.000000e+00
1.190748e+00 4.635003e-01 0.000000e+00
1.253064e+00 5.187301e-01 0.000000e+00
1.190748e+00 4.635003e-01 0.000000e+00
1.253064e+00 5.187301e-01 0.000000e+00
1.225165e+00 4.204691e-01 0.000000e+00
1.291944e+00 4.694478e-01 0.000000e+00
1.225165e+00 4.204691e-01 0.000000e+00
1.291944e+00 4.694478e-01 0.000000e+00
1.255698e+00 3.742934e-01 0.000000e+00
1.326194e+00 4.170070e-01 0.000000e+00
1.255698e+00 3.742934e-01 0.000000e+00
1.326194e+00 4.170070e-01 0.000000e+00
1.282269e+00 3.254663e-01 0.000000e+00
1.355819e+00 3.619433e-01 0.000000e+00
1.282269e+00 3.254663e-01 0.000000e+00
1.355819e+00 3.619433e-01 0.000000e+00
1.304823e+00 2.744383e-01 0.000000e+00
1.380839e+00 3.047272e-01 0.000000e+00
1.304823e+00 2.744383e-01 0.000000e+00
1.380839e+00 3.047272e-01 0.000000e+00
1.323321e+00 2.216253e-01 0.000000e+00
1.401274e+00 2.457793e-01 0.000000e+00
1.323321e+00 2.216253e-01 0.000000e+00
1.401274e+00 2.457793e-01 0.000000e+00
1.337732e+00 1.674153e-01 0.000000e+00
1.417147e+00 1.854834e-01 0.000000e+00
1.337732e+00 1.674153e-01 0.000000e+00
1.417147e+00 1.854834e-01 0.000000e+00
1.348039e+00 1.121750e-01 0.000000e+00
1.428472e+00 1.241971e-01 0.000000e+00
1.348039e+00 1.121750e-01 0.000000e+00
1.428472e+00 1.241971e-01 0.000000e+00
1.354228e+00 5.625595e-02 0.000000e+00
1.435263e+00 6.225995e-02 0.000000e+00
1.354228e+00 5.625595e-02 0.000000e+00
1.435263e+00 6.225995e-02 0.000000e+00
1.356292e+00 6.641200e-12 0.000000e+00
1.437525e+00 7.038970e-12 0.000000e+00
</DataArray>
</Points>
<Cells>
<DataArray type="Int32" Name="connectivity" format="ascii">
0 1 3 2
4 5 7 6
8 9 11 10
12 13 15 14
16 17 19 18
20 21 23 22
24 25 27 26
28 29 31 30
32 33 35 34
36 37 39 38
40 41 43 42
44 45 47 46
48 49 51 50
52 53 55 54
56 57 59 58
60 61 63 62
64 65 67 66
68 69 71 70
72 73 75 74
76 77 79 78
80 81 83 82
84 85 87 86
88 89 91 90
92 93 95 94
96 97 99 98
100 101 103 102
104 105 107 106
108 109 111 110
112 113 115 114
116 117 119 118
</DataArray>
<DataArray type="Int32" Name="offsets" format="ascii">
4
8
12
16
20
24
28
32
36
40
44
48
52
56
60
64
68
72
76
80
84
88
92
96
100
104
108
112
116
120
</DataArray>
<DataArray type="UInt8" Name="types" format="ascii">
9
9
9
9
9
9
9
9
9
9
9
9
9
9
9
9
9
9
9
9
9
9
9
9
9
9
9
9
9
9
</DataArray>
</Cells>
<PointData>
<DataArray type="Float32" Name="V1" format="ascii">
2.138700e+02
-3.688960e+01
2.141054e+02
-3.665422e+01
2.144323e+02
-3.686516e+01
2.150793e+02
-3.621818e+01
2.157427e+02
-3.665445e+01
2.168453e+02
-3.555181e+01
2.178238e+02
-3.621071e+01
2.193963e+02
-3.463820e+01
2.206775e+02
-3.551166e+01
2.227423e+02
-3.344687e+01
2.242974e+02
-3.451728e+01
2.268868e+02
-3.192787e+01
2.286557e+02
-3.315902e+01
2.318148e+02
-2.999992e+01
2.336770e+02
-3.131873e+01
2.374687e+02
-2.752702e+01
2.391900e+02
-2.878840e+01
2.437039e+02
-2.427450e+01
2.448374e+02
-2.519199e+01
2.502036e+02
-1.982573e+01
2.499104e+02
-1.983077e+01
2.563188e+02
-1.342241e+01
2.530548e+02
-1.136957e+01
2.607828e+02
-3.641557e+00
2.517640e+02
2.782099e+00
2.613731e+02
1.239116e+01
2.412983e+02
2.857857e+01
2.547460e+02
4.202629e+01
2.187078e+02
7.920339e+01
2.377894e+02
9.828494e+01
2.161638e+02
1.097592e+02
2.267557e+02
1.203511e+02
2.197670e+02
1.259496e+02
2.300691e+02
1.362517e+02
2.287207e+02
1.374953e+02
2.386934e+02
1.474681e+02
2.405902e+02
1.459797e+02
2.499953e+02
1.553848e+02
2.534613e+02
1.525168e+02
2.620763e+02
1.611319e+02
2.662050e+02
1.577060e+02
2.739190e+02
1.654200e+02
2.781566e+02
1.619284e+02
2.849324e+02
1.687043e+02
2.889604e+02
1.654193e+02
2.948079e+02
1.712669e+02
2.984480e+02
1.683294e+02
3.034003e+02
1.732817e+02
3.065605e+02
1.707560e+02
3.106596e+02
1.748551e+02
3.132983e+02
1.727634e+02
3.165867e+02
1.760519e+02
3.186904e+02
1.743953e+02
3.212062e+02
1.769110e+02
3.227754e+02
1.756815e+02
3.245495e+02
1.774556e+02
3.255903e+02
1.766431e+02
3.266455e+02
1.776984e+02
3.271640e+02
1.772944e+02
3.275142e+02
1.776446e+02
</DataArray>
<DataArray type="Float32" Name="V2" format="ascii">
6.182017e-01
7.100000e-01
6.206418e-01
7.122713e-01
6.206418e-01
7.122713e-01
6.279033e-01
7.190690e-01
6.279033e-01
7.190690e-01
6.399483e-01
7.303443e-01
6.399483e-01
7.303443e-01
6.566900e-01
7.460164e-01
6.566900e-01
7.460164e-01
6.780073e-01
7.659737e-01
6.780073e-01
7.659737e-01
7.037455e-01
7.900748e-01
7.037455e-01
7.900748e-01
7.337156e-01
8.181522e-01
7.337156e-01
8.181522e-01
7.676937e-01
8.500160e-01
7.676937e-01
8.500160e-01
8.054185e-01
8.854632e-01
8.054185e-01
8.854632e-01
8.465834e-01
9.242902e-01
8.465834e-01
9.242902e-01
8.908175e-01
9.663146e-01
8.908175e-01
9.663146e-01
9.376371e-01
1.011400e+00
9.376371e-01
1.011400e+00
9.863109e-01
1.059462e+00
9.863109e-01
1.059462e+00
1.035719e+00
1.110210e+00
1.035719e+00
1.110210e+00
1.084031e+00
1.159155e+00
1.084031e+00
1.159155e+00
1.126033e+00
1.201822e+00
1.126033e+00
1.201822e+00
1.163200e+00
1.240247e+00
1.163200e+00
1.240247e+00
1.195839e+00
1.274138e+00
1.195839e+00
1.274138e+00
1.224495e+00
1.303820e+00
1.224495e+00
1.303820e+00
1.249563e+00
1.329643e+00
1.249563e+00
1.329643e+00
1.271389e+00
1.351987e+00
1.271389e+00
1.351987e+00
1.290264e+00
1.371192e+00
1.290264e+00
1.371192e+00
1.306430e+00
1.387551e+00
1.306430e+00
1.387551e+00
1.320085e+00
1.401307e+00
1.320085e+00
1.401307e+00
1.331392e+00
1.412657e+00
1.331392e+00
1.412657e+00
1.340481e+00
1.421753e+00
1.340481e+00
1.421753e+00
1.347452e+00
1.428715e+00
1.347452e+00
1.428715e+00
1.352380e+00
1.433629e+00
1.352380e+00
1.433629e+00
1.355316e+00
1.436554e+00
1.355316e+00
1.436554e+00
1.356292e+00
1.437525e+00
</DataArray>
<DataArray type="Float32" Name="V3" format="ascii">
0.000000e+00
0.000000e+00
2.954739e-02
2.474770e-02
2.954739e-02
2.474770e-02
5.865235e-02
4.907631e-02
5.865235e-02
4.907631e-02
8.687225e-02
7.257058e-02
8.687225e-02
7.257058e-02
1.137705e-01
9.482001e-02
1.137705e-01
9.482001e-02
1.389166e-01
1.154233e-01
1.389166e-01
1.154233e-01
1.618882e-01
1.339921e-01
1.618882e-01
1.339921e-01
1.822717e-01
1.501553e-01
1.822717e-01
1.501553e-01
1.996620e-01
1.635660e-01
1.996620e-01
1.635660e-01
2.136599e-01
1.739100e-01
2.136599e-01
1.739100e-01
2.238658e-01
1.809176e-01
2.238658e-01
1.809176e-01
2.298675e-01
1.843782e-01
2.298675e-01
1.843782e-01
2.312217e-01
1.841486e-01
2.312217e-01
1.841486e-01
2.274549e-01
1.801249e-01
2.274549e-01
1.801249e-01
2.182232e-01
1.719347e-01
2.182232e-01
1.719347e-01
2.052898e-01
1.598044e-01
2.052898e-01
1.598044e-01
1.925205e-01
1.503890e-01
1.925205e-01
1.503890e-01
1.795874e-01
1.417965e-01
1.795874e-01
1.417965e-01
1.667302e-01
1.335080e-01
1.667302e-01
1.335080e-01
1.538230e-01
1.250449e-01
1.538230e-01
1.250449e-01
1.408014e-01
1.161483e-01
1.408014e-01
1.161483e-01
1.276067e-01
1.066873e-01
1.276067e-01
1.066873e-01
1.142019e-01
9.661920e-02
1.142019e-01
9.661920e-02
1.005689e-01
8.595594e-02
1.005689e-01
8.595594e-02
8.670616e-02
7.474263e-02
8.670616e-02
7.474263e-02
7.262607e-02
6.304344e-02
7.262607e-02
6.304344e-02
5.835152e-02
5.093290e-02
5.835152e-02
5.093290e-02
4.391333e-02
3.849077e-02
4.391333e-02
3.849077e-02
2.934802e-02
2.579921e-02
2.934802e-02
2.579921e-02
1.469598e-02
1.294121e-02
1.469598e-02
1.294121e-02
0.000000e+00
0.000000e+00
</DataArray>
<DataArray type="Float32" Name="V4" format="ascii">
8.500000e-01
1.000000e+00
8.500000e-01
1.000000e+00
8.500000e-01
1.000000e+00
8.500000e-01
1.000000e+00
8.500000e-01
1.000000e+00
8.500000e-01
1.000000e+00
8.500000e-01
1.000000e+00
8.500000e-01
1.000000e+00
8.500000e-01
1.000000e+00
8.500000e-01
1.000000e+00
8.500000e-01
1.000000e+00
8.500000e-01
1.000000e+00
8.500000e-01
1.000000e+00
8.500000e-01
1.000000e+00
8.500000e-01
1.000000e+00
8.500000e-01
1.000000e+00
8.500000e-01
1.000000e+00
8.500000e-01
1.000000e+00
8.500000e-01
1.000000e+00
8.500000e-01
1.000000e+00
8.500000e-01
1.000000e+00
8.500000e-01
1.000000e+00
8.500000e-01
1.000000e+00
8.500000e-01
1.000000e+00
8.500000e-01
1.000000e+00
8.500000e-01
1.000000e+00
8.500000e-01
1.000000e+00
8.500000e-01
1.000000e+00
8.500000e-01
1.000000e+00
8.500000e-01
1.000000e+00
8.500000e-01
1.000000e+00
8.500000e-01
1.000000e+00
8.500000e-01
1.000000e+00
8.500000e-01
1.000000e+00
8.500000e-01
1.000000e+00
8.500000e-01
1.000000e+00
8.500000e-01
1.000000e+00
8.500000e-01
1.000000e+00
8.500000e-01
1.000000e+00
8.500000e-01
1.000000e+00
8.500000e-01
1.000000e+00
8.500000e-01
1.000000e+00
8.500000e-01
1.000000e+00
8.500000e-01
1.000000e+00
8.500000e-01
1.000000e+00
8.500000e-01
1.000000e+00
8.500000e-01
1.000000e+00
8.500000e-01
1.000000e+00
8.500000e-01
1.000000e+00
8.500000e-01
1.000000e+00
8.500000e-01
1.000000e+00
8.500000e-01
1.000000e+00
8.500000e-01
1.000000e+00
8.500000e-01
1.000000e+00
8.500000e-01
1.000000e+00
8.500000e-01
1.000000e+00
8.500000e-01
1.000000e+00
8.500000e-01
1.000000e+00
8.500000e-01
1.000000e+00
8.500000e-01
1.000000e+00
</DataArray>
<DataArray type="Float32" Name="V5" format="ascii">
0.000000e+00
0.000000e+00
5.235988e-02
5.235988e-02
5.235988e-02
5.235988e-02
1.047198e-01
1.047198e-01
1.047198e-01
1.047198e-01
1.570796e-01
1.570796e-01
1.570796e-01
1.570796e-01
2.094395e-01
2.094395e-01
2.094395e-01
2.094395e-01
2.617994e-01
2.617994e-01
2.617994e-01
2.617994e-01
3.141593e-01
3.141593e-01
3.141593e-01
3.141593e-01
3.665191e-01
3.665191e-01
3.665191e-01
3.665191e-01
4.188790e-01
4.188790e-01
4.188790e-01
4.188790e-01
4.712389e-01
4.712389e-01
4.712389e-01
4.712389e-01
5.235988e-01
5.235988e-01
5.235988e-01
5.235988e-01
5.759587e-01
5.759587e-01
5.759587e-01
5.759587e-01
6.283185e-01
6.283185e-01
6.283185e-01
6.283185e-01
6.806784e-01
6.806784e-01
6.806784e-01
6.806784e-01
7.330383e-01
7.330383e-01
7.330383e-01
7.330383e-01
7.853982e-01
7.853982e-01
7.853982e-01
7.853982e-01
8.377580e-01
8.377580e-01
8.377580e-01
8.377580e-01
8.901179e-01
8.901179e-01
8.901179e-01
8.901179e-01
9.424778e-01
9.424778e-01
9.424778e-01
9.424778e-01
9.948377e-01
9.948377e-01
9.948377e-01
9.948377e-01
1.047198e+00
1.047198e+00
1.047198e+00
1.047198e+00
1.099557e+00
1.099557e+00
1.099557e+00
1.099557e+00
1.151917e+00
1.151917e+00
1.151917e+00
1.151917e+00
1.204277e+00
1.204277e+00
1.204277e+00
1.204277e+00
1.256637e+00
1.256637e+00
1.256637e+00
1.256637e+00
1.308997e+00
1.308997e+00
1.308997e+00
1.308997e+00
1.361357e+00
1.361357e+00
1.361357e+00
1.361357e+00
1.413717e+00
1.413717e+00
1.413717e+00
1.413717e+00
1.466077e+00
1.466077e+00
1.466077e+00
1.466077e+00
1.518436e+00
1.518436e+00
1.518436e+00
1.518436e+00
1.570796e+00
1.570796e+00
</DataArray>
</PointData>
</Piece></UnstructuredGrid>
</VTKFile>
