<?xml version="1.0"?>
<VTKFile type="UnstructuredGrid" version="0.1" byte_order="LittleEndian" compressor="vtkZLibDataCompressor">
<UnstructuredGrid>
<Piece NumberOfPoints="120" NumberOfCells="30">
<Points>
<DataArray type="Float32" NumberOfComponents="3" format="ascii">
0.000000e+00 9.837484e-01 0.000000e+00
0.000000e+00 1.090000e+00 0.000000e+00
5.615884e-02 9.838605e-01 0.000000e+00
5.939137e-02 1.090000e+00 0.000000e+00
5.615884e-02 9.838605e-01 0.000000e+00
5.939137e-02 1.090000e+00 0.000000e+00
1.119705e-01 9.838834e-01 0.000000e+00
1.189912e-01 1.090000e+00 0.000000e+00
1.119705e-01 9.838834e-01 0.000000e+00
1.189912e-01 1.090000e+00 0.000000e+00
1.671265e-01 9.835081e-01 0.000000e+00
1.787512e-01 1.090000e+00 0.000000e+00
1.671265e-01 9.835081e-01 0.000000e+00
1.787512e-01 1.090000e+00 0.000000e+00
2.217933e-01 9.813850e-01 0.000000e+00
2.374778e-01 1.088001e+00 0.000000e+00
2.217933e-01 9.813850e-01 0.000000e+00
2.374778e-01 1.088001e+00 0.000000e+00
2.754516e-01 9.747778e-01 0.000000e+00
2.962311e-01 1.080111e+00 0.000000e+00
2.754516e-01 9.747778e-01 0.000000e+00
2.962311e-01 1.080111e+00 0.000000e+00
3.282760e-01 9.644417e-01 0.000000e+00
3.547782e-01 1.068189e+00 0.000000e+00
3.282760e-01 9.644417e-01 0.000000e+00
3.547782e-01 1.068189e+00 0.000000e+00
3.802086e-01 9.504790e-01 0.000000e+00
4.126084e-01 1.052328e+00 0.000000e+00
3.802086e-01 9.504790e-01 0.000000e+00
4.126084e-01 1.052328e+00 0.000000e+00
4.311296e-01 9.331540e-01 0.000000e+00
4.693962e-01 1.032782e+00 0.000000e+00
4.311296e-01 9.331540e-01 0.000000e+00
4.693962e-01 1.032782e+00 0.000000e+00
4.808991e-01 9.126469e-01 0.000000e+00
5.248931e-01 1.009748e+00 0.000000e+00
4.808991e-01 9.126469e-01 0.000000e+00
5.248931e-01 1.009748e+00 0.000000e+00
5.293762e-01 8.891228e-01 0.000000e+00
5.789033e-01 9.834082e-01 0.000000e+00
5.293762e-01 8.891228e-01 0.000000e+00
5.789033e-01 9.834082e-01 0.000000e+00
5.764218e-01 8.627321e-01 0.000000e+00
6.312592e-01 9.539342e-01 0.000000e+00
5.764218e-01 8.627321e-01 0.000000e+00
6.312592e-01 9.539342e-01 0.000000e+00
6.219011e-01 8.336169e-01 0.000000e+00
6.818115e-01 9.214857e-01 0.000000e+00
6.219011e-01 8.336169e-01 0.000000e+00
6.818115e-01 9.214857e-01 0.000000e+00
6.656845e-01 8.019148e-01 0.000000e+00
7.304231e-01 8.862156e-01 0.000000e+00
6.656845e-01 8.019148e-01 0.000000e+00
7.304231e-01 8.862156e-01 0.000000e+00
7.076488e-01 7.677603e-01 0.000000e+00
7.769660e-01 8.482728e-01 0.000000e+00
7.076488e-01 7.677603e-01 0.000000e+00
7.769660e-01 8.482728e-01 0.000000e+00
7.476765e-01 7.312869e-01 0.000000e+00
8.213198e-01 8.078037e-01 0.000000e+00
7.476765e-01 7.312869e-01 0.000000e+00
8.213198e-01 8.078037e-01 0.000000e+00
7.856567e-01 6.926277e-01 0.000000e+00
8.633706e-01 7.649538e-01 0.000000e+00
7.856567e-01 6.926277e-01 0.000000e+00
8.633706e-01 7.649538e-01 0.000000e+00
8.214848e-01 6.519168e-01 0.000000e+00
9.030109e-01 7.198687e-01 0.000000e+00
8.214848e-01 6.519168e-01 0.000000e+00
9.030109e-01 7.198687e-01 0.000000e+00
8.550628e-01 6.092892e-01 0.000000e+00
9.401393e-01 6.726954e-01 0.000000e+00
8.550628e-01 6.092892e-01 0.000000e+00
9.401393e-01 6.726954e-01 0.000000e+00
8.862992e-01 5.648817e-01 0.000000e+00
9.746610e-01 6.235825e-01 0.000000e+00
8.862992e-01 5.648817e-01 0.000000e+00
9.746610e-01 6.235825e-01 0.000000e+00
9.151093e-01 5.188331e-01 0.000000e+00
1.006487e+00 5.726805e-01 0.000000e+00
9.151093e-01 5.188331e-01 0.000000e+00
1.006487e+00 5.726805e-01 0.000000e+00
9.414150e-01 4.712841e-01 0.000000e+00
1.035537e+00 5.201424e-01 0.000000e+00
9.414150e-01 4.712841e-01 0.000000e+00
1.035537e+00 5.201424e-01 0.000000e+00
9.651453e-01 4.223775e-01 0.000000e+00
1.061734e+00 4.661234e-01 0.000000e+00
9.651453e-01 4.223775e-01 0.000000e+00
1.061734e+00 4.661234e-01 0.000000e+00
9.862363e-01 3.722581e-01 0.000000e+00
1.085011e+00 4.107812e-01 0.000000e+00
9.862363e-01 3.722581e-01 0.000000e+00
1.085011e+00 4.107812e-01 0.000000e+00
1.004631e+00 3.210727e-01 0.000000e+00
1.105309e+00 3.542757e-01 0.000000e+00
1.004631e+00 3.210727e-01 0.000000e+00
1.105309e+00 3.542757e-01 0.000000e+00
1.020280e+00 2.689701e-01 0.000000e+00
1.122574e+00 2.967689e-01 0.000000e+00
1.020280e+00 2.689701e-01 0.000000e+00
1.122574e+00 2.967689e-01 0.000000e+00
1.033142e+00 2.161004e-01 0.000000e+00
1.136762e+00 2.384245e-01 0.000000e+00
1.033142e+00 2.161004e-01 0.000000e+00
1.136762e+00 2.384245e-01 0.000000e+00
1.043182e+00 1.626153e-01 0.000000e+00
1.147836e+00 1.794082e-01 0.000000e+00
1.043182e+00 1.626153e-01 0.000000e+00
1.147836e+00 1.794082e-01 0.000000e+00
1.050372e+00 1.086676e-01 0.000000e+00
1.155766e+00 1.198867e-01 0.000000e+00
1.050372e+00 1.086676e-01 0.000000e+00
1.155766e+00 1.198867e-01 0.000000e+00
1.054694e+00 5.441111e-02 0.000000e+00
1.160533e+00 6.002776e-02 0.000000e+00
1.054694e+00 5.441111e-02 0.000000e+00
1.160533e+00 6.002776e-02 0.000000e+00
1.056136e+00 5.171460e-12 0.000000e+00
1.162123e+00 5.690440e-12 0.000000e+00
</DataArray>
</Points>
<Cells>
<DataArray type="Int32" Name="connectivity" format="ascii">
0 1 3 2
4 5 7 6
8 9 11 10
12 13 15 14
16 17 19 18
20 21 23 22
24 25 27 26
28 29 31 30
32 33 35 34
36 37 39 38
40 41 43 42
44 45 47 46
48 49 51 50
52 53 55 54
56 57 59 58
60 61 63 62
64 65 67 66
68 69 71 70
72 73 75 74
76 77 79 78
80 81 83 82
84 85 87 86
88 89 91 90
92 93 95 94
96 97 99 98
100 101 103 102
104 105 107 106
108 109 111 110
112 113 115 114
116 117 119 118
</DataArray>
<DataArray type="Int32" Name="offsets" format="ascii">
4
8
12
16
20
24
28
32
36
40
44
48
52
56
60
64
68
72
76
80
84
88
92
96
100
104
108
112
116
120
</DataArray>
<DataArray type="UInt8" Name="types" format="ascii">
9
9
9
9
9
9
9
9
9
9
9
9
9
9
9
9
9
9
9
9
9
9
9
9
9
9
9
9
9
9
</DataArray>
</Cells>
<PointData>
<DataArray type="Float32" Name="V1" format="ascii">
8.730750e+01
-8.742210e+00
8.788911e+01
-8.160597e+00
8.448908e+01
-5.993578e+00
8.567902e+01
-4.803635e+00
7.826182e+01
6.517170e-01
8.112436e+01
3.514260e+00
6.947774e+01
1.453257e+01
7.371191e+01
1.876674e+01
6.668259e+01
2.229720e+01
6.774547e+01
2.336008e+01
6.471272e+01
2.550496e+01
6.543344e+01
2.622567e+01
6.378693e+01
2.746757e+01
6.436995e+01
2.805058e+01
6.354211e+01
2.869356e+01
6.402769e+01
2.917915e+01
6.364829e+01
2.947673e+01
6.405573e+01
2.988416e+01
6.393466e+01
2.998058e+01
6.427784e+01
3.032376e+01
6.430072e+01
3.030749e+01
6.459054e+01
3.059731e+01
6.469026e+01
3.052102e+01
6.493564e+01
3.076641e+01
6.507227e+01
3.066144e+01
6.528055e+01
3.086972e+01
6.543065e+01
3.075442e+01
6.560786e+01
3.093163e+01
6.575796e+01
3.081647e+01
6.590906e+01
3.096757e+01
6.605175e+01
3.085827e+01
6.618080e+01
3.098732e+01
6.631231e+01
3.088673e+01
6.642266e+01
3.099708e+01
6.654141e+01
3.090638e+01
6.663580e+01
3.100077e+01
6.674146e+01
3.092018e+01
6.682216e+01
3.100088e+01
6.691510e+01
3.093007e+01
6.698398e+01
3.099895e+01
6.706492e+01
3.093734e+01
6.712353e+01
3.099595e+01
6.719335e+01
3.094285e+01
6.724295e+01
3.099246e+01
6.730255e+01
3.094717e+01
6.734420e+01
3.098883e+01
6.739442e+01
3.095069e+01
6.742898e+01
3.098525e+01
6.747059e+01
3.095367e+01
6.749877e+01
3.098184e+01
6.753243e+01
3.095629e+01
6.755477e+01
3.097863e+01
6.758105e+01
3.095870e+01
6.759800e+01
3.097565e+01
6.761732e+01
3.096099e+01
6.762920e+01
3.097287e+01
6.764190e+01
3.096324e+01
6.764894e+01
3.097028e+01
6.765524e+01
3.096550e+01
6.765757e+01
3.096784e+01
</DataArray>
<DataArray type="Float32" Name="V2" format="ascii">
9.837484e-01
1.090000e+00
9.854513e-01
1.091614e+00
9.854513e-01
1.091614e+00
9.901977e-01
1.096467e+00
9.901977e-01
1.096467e+00
9.975438e-01
1.104543e+00
9.975438e-01
1.104543e+00
1.006053e+00
1.113600e+00
1.006053e+00
1.113600e+00
1.012855e+00
1.119977e+00
1.012855e+00
1.119977e+00
1.018681e+00
1.125540e+00
1.018681e+00
1.125540e+00
1.023603e+00
1.130298e+00
1.023603e+00
1.130298e+00
1.027835e+00
1.134414e+00
1.027835e+00
1.134414e+00
1.031498e+00
1.137988e+00
1.031498e+00
1.137988e+00
1.034691e+00
1.141108e+00
1.034691e+00
1.141108e+00
1.037490e+00
1.143845e+00
1.037490e+00
1.143845e+00
1.039955e+00
1.146256e+00
1.039955e+00
1.146256e+00
1.042134e+00
1.148389e+00
1.042134e+00
1.148389e+00
1.044067e+00
1.150281e+00
1.044067e+00
1.150281e+00
1.045785e+00
1.151964e+00
1.045785e+00
1.151964e+00
1.047315e+00
1.153463e+00
1.047315e+00
1.153463e+00
1.048678e+00
1.154799e+00
1.048678e+00
1.154799e+00
1.049892e+00
1.155989e+00
1.049892e+00
1.155989e+00
1.050970e+00
1.157047e+00
1.050970e+00
1.157047e+00
1.051924e+00
1.157984e+00
1.051924e+00
1.157984e+00
1.052765e+00
1.158810e+00
1.052765e+00
1.158810e+00
1.053500e+00
1.159532e+00
1.053500e+00
1.159532e+00
1.054136e+00
1.160156e+00
1.054136e+00
1.160156e+00
1.054678e+00
1.160689e+00
1.054678e+00
1.160689e+00
1.055130e+00
1.161133e+00
1.055130e+00
1.161133e+00
1.055495e+00
1.161493e+00
1.055495e+00
1.161493e+00
1.055777e+00
1.161770e+00
1.055777e+00
1.161770e+00
1.055977e+00
1.161966e+00
1.055977e+00
1.161966e+00
1.056096e+00
1.162084e+00
1.056096e+00
1.162084e+00
1.056136e+00
1.162123e+00
</DataArray>
<DataArray type="Float32" Name="V3" format="ascii">
0.000000e+00
0.000000e+00
4.590591e-03
2.263781e-03
4.590591e-03
2.263781e-03
8.513309e-03
4.403309e-03
8.513309e-03
4.403309e-03
1.121436e-02
6.036870e-03
1.121436e-02
6.036870e-03
1.290520e-02
6.080144e-03
1.290520e-02
6.080144e-03
1.377475e-02
6.583986e-03
1.377475e-02
6.583986e-03
1.418012e-02
7.325704e-03
1.418012e-02
7.325704e-03
1.433410e-02
8.082533e-03
1.433410e-02
8.082533e-03
1.430857e-02
8.744315e-03
1.430857e-02
8.744315e-03
1.415124e-02
9.267363e-03
1.415124e-02
9.267363e-03
1.389186e-02
9.640811e-03
1.389186e-02
9.640811e-03
1.355046e-02
9.868668e-03
1.355046e-02
9.868668e-03
1.314079e-02
9.961406e-03
1.314079e-02
9.961406e-03
1.267272e-02
9.931806e-03
1.267272e-02
9.931806e-03
1.215361e-02
9.792952e-03
1.215361e-02
9.792952e-03
1.158922e-02
9.557290e-03
1.158922e-02
9.557290e-03
1.098425e-02
9.236239e-03
1.098425e-02
9.236239e-03
1.034268e-02
8.840077e-03
1.034268e-02
8.840077e-03
9.668032e-03
8.377982e-03
9.668032e-03
8.377982e-03
8.963474e-03
7.858120e-03
8.963474e-03
7.858120e-03
8.231947e-03
7.287776e-03
8.231947e-03
7.287776e-03
7.476218e-03
6.673475e-03
7.476218e-03
6.673475e-03
6.698929e-03
6.021101e-03
6.698929e-03
6.021101e-03
5.902632e-03
5.336003e-03
5.902632e-03
5.336003e-03
5.089812e-03
4.623096e-03
5.089812e-03
4.623096e-03
4.262901e-03
3.886934e-03
4.262901e-03
3.886934e-03
3.424295e-03
3.131787e-03
3.424295e-03
3.131787e-03
2.576360e-03
2.361701e-03
2.576360e-03
2.361701e-03
1.721445e-03
1.580552e-03
1.721445e-03
1.580552e-03
8.618829e-04
7.920936e-04
8.618829e-04
7.920936e-04
0.000000e+00
0.000000e+00
</DataArray>
<DataArray type="Float32" Name="V4" format="ascii">
8.500000e-01
1.000000e+00
8.500000e-01
1.000000e+00
8.500000e-01
1.000000e+00
8.500000e-01
1.000000e+00
8.500000e-01
1.000000e+00
8.500000e-01
1.000000e+00
8.500000e-01
1.000000e+00
8.500000e-01
1.000000e+00
8.500000e-01
1.000000e+00
8.500000e-01
1.000000e+00
8.500000e-01
1.000000e+00
8.500000e-01
1.000000e+00
8.500000e-01
1.000000e+00
8.500000e-01
1.000000e+00
8.500000e-01
1.000000e+00
8.500000e-01
1.000000e+00
8.500000e-01
1.000000e+00
8.500000e-01
1.000000e+00
8.500000e-01
1.000000e+00
8.500000e-01
1.000000e+00
8.500000e-01
1.000000e+00
8.500000e-01
1.000000e+00
8.500000e-01
1.000000e+00
8.500000e-01
1.000000e+00
8.500000e-01
1.000000e+00
8.500000e-01
1.000000e+00
8.500000e-01
1.000000e+00
8.500000e-01
1.000000e+00
8.500000e-01
1.000000e+00
8.500000e-01
1.000000e+00
8.500000e-01
1.000000e+00
8.500000e-01
1.000000e+00
8.500000e-01
1.000000e+00
8.500000e-01
1.000000e+00
8.500000e-01
1.000000e+00
8.500000e-01
1.000000e+00
8.500000e-01
1.000000e+00
8.500000e-01
1.000000e+00
8.500000e-01
1.000000e+00
8.500000e-01
1.000000e+00
8.500000e-01
1.000000e+00
8.500000e-01
1.000000e+00
8.500000e-01
1.000000e+00
8.500000e-01
1.000000e+00
8.500000e-01
1.000000e+00
8.500000e-01
1.000000e+00
8.500000e-01
1.000000e+00
8.500000e-01
1.000000e+00
8.500000e-01
1.000000e+00
8.500000e-01
1.000000e+00
8.500000e-01
1.000000e+00
8.500000e-01
1.000000e+00
8.500000e-01
1.000000e+00
8.500000e-01
1.000000e+00
8.500000e-01
1.000000e+00
8.500000e-01
1.000000e+00
8.500000e-01
1.000000e+00
8.500000e-01
1.000000e+00
8.500000e-01
1.000000e+00
8.500000e-01
1.000000e+00
</DataArray>
<DataArray type="Float32" Name="V5" format="ascii">
0.000000e+00
0.000000e+00
5.235988e-02
5.235988e-02
5.235988e-02
5.235988e-02
1.047198e-01
1.047198e-01
1.047198e-01
1.047198e-01
1.570796e-01
1.570796e-01
1.570796e-01
1.570796e-01
2.094395e-01
2.094395e-01
2.094395e-01
2.094395e-01
2.617994e-01
2.617994e-01
2.617994e-01
2.617994e-01
3.141593e-01
3.141593e-01
3.141593e-01
3.141593e-01
3.665191e-01
3.665191e-01
3.665191e-01
3.665191e-01
4.188790e-01
4.188790e-01
4.188790e-01
4.188790e-01
4.712389e-01
4.712389e-01
4.712389e-01
4.712389e-01
5.235988e-01
5.235988e-01
5.235988e-01
5.235988e-01
5.759587e-01
5.759587e-01
5.759587e-01
5.759587e-01
6.283185e-01
6.283185e-01
6.283185e-01
6.283185e-01
6.806784e-01
6.806784e-01
6.806784e-01
6.806784e-01
7.330383e-01
7.330383e-01
7.330383e-01
7.330383e-01
7.853982e-01
7.853982e-01
7.853982e-01
7.853982e-01
8.377580e-01
8.377580e-01
8.377580e-01
8.377580e-01
8.901179e-01
8.901179e-01
8.901179e-01
8.901179e-01
9.424778e-01
9.424778e-01
9.424778e-01
9.424778e-01
9.948377e-01
9.948377e-01
9.948377e-01
9.948377e-01
1.047198e+00
1.047198e+00
1.047198e+00
1.047198e+00
1.099557e+00
1.099557e+00
1.099557e+00
1.099557e+00
1.151917e+00
1.151917e+00
1.151917e+00
1.151917e+00
1.204277e+00
1.204277e+00
1.204277e+00
1.204277e+00
1.256637e+00
1.256637e+00
1.256637e+00
1.256637e+00
1.308997e+00
1.308997e+00
1.308997e+00
1.308997e+00
1.361357e+00
1.361357e+00
1.361357e+00
1.361357e+00
1.413717e+00
1.413717e+00
1.413717e+00
1.413717e+00
1.466077e+00
1.466077e+00
1.466077e+00
1.466077e+00
1.518436e+00
1.518436e+00
1.518436e+00
1.518436e+00
1.570796e+00
1.570796e+00
</DataArray>
</PointData>
</Piece></UnstructuredGrid>
</VTKFile>
