<?xml version="1.0"?>
<VTKFile type="UnstructuredGrid" version="0.1" byte_order="LittleEndian" compressor="vtkZLibDataCompressor">
<UnstructuredGrid>
<Piece NumberOfPoints="120" NumberOfCells="30">
<Points>
<DataArray type="Float32" NumberOfComponents="3" format="ascii">
0.000000e+00 7.953537e-01 0.000000e+00
0.000000e+00 9.000000e-01 0.000000e+00
5.799549e-02 7.954102e-01 0.000000e+00
5.817203e-02 9.000000e-01 0.000000e+00
5.799549e-02 7.954102e-01 0.000000e+00
5.817203e-02 9.000000e-01 0.000000e+00
1.159618e-01 7.955313e-01 0.000000e+00
1.163708e-01 9.000000e-01 0.000000e+00
1.159618e-01 7.955313e-01 0.000000e+00
1.163708e-01 9.000000e-01 0.000000e+00
1.738622e-01 7.957399e-01 0.000000e+00
1.746363e-01 9.000000e-01 0.000000e+00
1.738622e-01 7.957399e-01 0.000000e+00
1.746363e-01 9.000000e-01 0.000000e+00
2.316475e-01 7.960447e-01 0.000000e+00
2.330288e-01 9.000000e-01 0.000000e+00
2.316475e-01 7.960447e-01 0.000000e+00
2.330288e-01 9.000000e-01 0.000000e+00
2.892411e-01 7.964547e-01 0.000000e+00
2.916431e-01 9.000000e-01 0.000000e+00
2.892411e-01 7.964547e-01 0.000000e+00
2.916431e-01 9.000000e-01 0.000000e+00
3.465141e-01 7.969677e-01 0.000000e+00
3.506162e-01 9.000000e-01 0.000000e+00
3.465141e-01 7.969677e-01 0.000000e+00
3.506162e-01 9.000000e-01 0.000000e+00
4.032450e-01 7.975334e-01 0.000000e+00
4.101147e-01 9.000000e-01 0.000000e+00
4.032450e-01 7.975334e-01 0.000000e+00
4.101147e-01 9.000000e-01 0.000000e+00
4.590686e-01 7.978881e-01 0.000000e+00
4.702578e-01 9.000000e-01 0.000000e+00
4.590686e-01 7.978881e-01 0.000000e+00
4.702578e-01 9.000000e-01 0.000000e+00
5.137716e-01 7.977364e-01 0.000000e+00
5.303954e-01 9.000000e-01 0.000000e+00
5.137716e-01 7.977364e-01 0.000000e+00
5.303954e-01 9.000000e-01 0.000000e+00
5.673968e-01 7.936219e-01 0.000000e+00
5.894751e-01 8.944124e-01 0.000000e+00
5.673968e-01 7.936219e-01 0.000000e+00
5.894751e-01 8.944124e-01 0.000000e+00
6.192653e-01 7.840329e-01 0.000000e+00
6.482707e-01 8.822229e-01 0.000000e+00
6.192653e-01 7.840329e-01 0.000000e+00
6.482707e-01 8.822229e-01 0.000000e+00
6.695020e-01 7.691078e-01 0.000000e+00
7.059880e-01 8.641148e-01 0.000000e+00
6.695020e-01 7.691078e-01 0.000000e+00
7.059880e-01 8.641148e-01 0.000000e+00
7.179565e-01 7.493424e-01 0.000000e+00
7.618629e-01 8.405993e-01 0.000000e+00
7.179565e-01 7.493424e-01 0.000000e+00
7.618629e-01 8.405993e-01 0.000000e+00
7.644448e-01 7.251755e-01 0.000000e+00
8.153859e-01 8.122033e-01 0.000000e+00
7.644448e-01 7.251755e-01 0.000000e+00
8.153859e-01 8.122033e-01 0.000000e+00
8.087974e-01 6.970207e-01 0.000000e+00
8.662407e-01 7.794472e-01 0.000000e+00
8.087974e-01 6.970207e-01 0.000000e+00
8.662407e-01 7.794472e-01 0.000000e+00
8.508625e-01 6.652570e-01 0.000000e+00
9.142269e-01 7.428054e-01 0.000000e+00
8.508625e-01 6.652570e-01 0.000000e+00
9.142269e-01 7.428054e-01 0.000000e+00
8.905069e-01 6.302335e-01 0.000000e+00
9.592145e-01 7.027014e-01 0.000000e+00
8.905069e-01 6.302335e-01 0.000000e+00
9.592145e-01 7.027014e-01 0.000000e+00
9.276144e-01 5.922710e-01 0.000000e+00
1.001114e+00 6.595109e-01 0.000000e+00
9.276144e-01 5.922710e-01 0.000000e+00
1.001114e+00 6.595109e-01 0.000000e+00
9.620834e-01 5.516662e-01 0.000000e+00
1.039861e+00 6.135683e-01 0.000000e+00
9.620834e-01 5.516662e-01 0.000000e+00
1.039861e+00 6.135683e-01 0.000000e+00
9.938256e-01 5.086943e-01 0.000000e+00
1.075402e+00 5.651749e-01 0.000000e+00
9.938256e-01 5.086943e-01 0.000000e+00
1.075402e+00 5.651749e-01 0.000000e+00
1.022763e+00 4.636128e-01 0.000000e+00
1.107694e+00 5.146058e-01 0.000000e+00
1.022763e+00 4.636128e-01 0.000000e+00
1.107694e+00 5.146058e-01 0.000000e+00
1.048829e+00 4.166643e-01 0.000000e+00
1.136698e+00 4.621161e-01 0.000000e+00
1.048829e+00 4.166643e-01 0.000000e+00
1.136698e+00 4.621161e-01 0.000000e+00
1.071964e+00 3.680798e-01 0.000000e+00
1.162380e+00 4.079451e-01 0.000000e+00
1.071964e+00 3.680798e-01 0.000000e+00
1.162380e+00 4.079451e-01 0.000000e+00
1.092116e+00 3.180803e-01 0.000000e+00
1.184707e+00 3.523211e-01 0.000000e+00
1.092116e+00 3.180803e-01 0.000000e+00
1.184707e+00 3.523211e-01 0.000000e+00
1.109241e+00 2.668797e-01 0.000000e+00
1.203650e+00 2.954635e-01 0.000000e+00
1.109241e+00 2.668797e-01 0.000000e+00
1.203650e+00 2.954635e-01 0.000000e+00
1.123302e+00 2.146856e-01 0.000000e+00
1.219185e+00 2.375855e-01 0.000000e+00
1.123302e+00 2.146856e-01 0.000000e+00
1.219185e+00 2.375855e-01 0.000000e+00
1.134270e+00 1.617015e-01 0.000000e+00
1.231291e+00 1.788957e-01 0.000000e+00
1.134270e+00 1.617015e-01 0.000000e+00
1.231291e+00 1.788957e-01 0.000000e+00
1.142121e+00 1.081276e-01 0.000000e+00
1.239950e+00 1.195996e-01 0.000000e+00
1.142121e+00 1.081276e-01 0.000000e+00
1.239950e+00 1.195996e-01 0.000000e+00
1.146839e+00 5.416163e-02 0.000000e+00
1.245150e+00 5.990043e-02 0.000000e+00
1.146839e+00 5.416163e-02 0.000000e+00
1.245150e+00 5.990043e-02 0.000000e+00
1.148412e+00 5.623300e-12 0.000000e+00
1.246885e+00 6.105480e-12 0.000000e+00
</DataArray>
</Points>
<Cells>
<DataArray type="Int32" Name="connectivity" format="ascii">
0 1 3 2
4 5 7 6
8 9 11 10
12 13 15 14
16 17 19 18
20 21 23 22
24 25 27 26
28 29 31 30
32 33 35 34
36 37 39 38
40 41 43 42
44 45 47 46
48 49 51 50
52 53 55 54
56 57 59 58
60 61 63 62
64 65 67 66
68 69 71 70
72 73 75 74
76 77 79 78
80 81 83 82
84 85 87 86
88 89 91 90
92 93 95 94
96 97 99 98
100 101 103 102
104 105 107 106
108 109 111 110
112 113 115 114
116 117 119 118
</DataArray>
<DataArray type="Int32" Name="offsets" format="ascii">
4
8
12
16
20
24
28
32
36
40
44
48
52
56
60
64
68
72
76
80
84
88
92
96
100
104
108
112
116
120
</DataArray>
<DataArray type="UInt8" Name="types" format="ascii">
9
9
9
9
9
9
9
9
9
9
9
9
9
9
9
9
9
9
9
9
9
9
9
9
9
9
9
9
9
9
</DataArray>
</Cells>
<PointData>
<DataArray type="Float32" Name="V1" format="ascii">
1.167977e+02
-2.780014e+01
1.169352e+02
-2.766267e+01
1.169279e+02
-2.767308e+01
1.172768e+02
-2.732417e+01
1.172117e+02
-2.730117e+01
1.178149e+02
-2.669794e+01
1.175159e+02
-2.654267e+01
1.184057e+02
-2.565284e+01
1.175657e+02
-2.516617e+01
1.187966e+02
-2.393524e+01
1.168758e+02
-2.274001e+01
1.185398e+02
-2.107608e+01
1.146221e+02
-1.845857e+01
1.168960e+02
-1.618467e+01
1.094655e+02
-1.089194e+01
1.129749e+02
-7.382552e+00
9.907565e+01
3.995004e+00
1.053553e+02
1.027470e+01
8.905746e+01
2.519411e+01
9.434208e+01
3.047873e+01
8.544834e+01
3.568154e+01
8.831210e+01
3.854531e+01
8.419935e+01
4.170874e+01
8.676667e+01
4.427606e+01
8.508690e+01
4.568533e+01
8.749207e+01
4.809050e+01
8.717606e+01
4.838157e+01
8.939018e+01
5.059569e+01
8.984810e+01
5.023170e+01
9.184389e+01
5.222750e+01
9.271276e+01
5.151785e+01
9.448210e+01
5.328719e+01
9.553919e+01
5.242541e+01
9.708924e+01
5.397546e+01
9.819867e+01
5.307771e+01
9.954518e+01
5.442422e+01
1.006268e+02
5.355668e+01
1.017890e+02
5.471896e+01
1.027978e+02
5.391678e+01
1.037956e+02
5.491456e+01
1.047089e+02
5.419411e+01
1.055607e+02
5.504593e+01
1.063691e+02
5.441265e+01
1.070915e+02
5.513502e+01
1.077934e+02
5.458836e+01
1.084006e+02
5.519555e+01
1.089990e+02
5.473189e+01
1.095031e+02
5.523598e+01
1.100027e+02
5.485046e+01
1.104137e+02
5.526141e+01
1.108199e+02
5.494899e+01
1.111458e+02
5.527489e+01
1.114639e+02
5.503092e+01
1.117111e+02
5.527811e+01
1.119454e+02
5.509868e+01
1.121187e+02
5.527194e+01
1.122729e+02
5.515402e+01
1.123756e+02
5.525667e+01
1.124521e+02
5.519822e+01
1.124861e+02
5.523222e+01
</DataArray>
<DataArray type="Float32" Name="V2" format="ascii">
7.953537e-01
9.000000e-01
7.973553e-01
9.018111e-01
7.973553e-01
9.018111e-01
8.032946e-01
9.072338e-01
8.032946e-01
9.072338e-01
8.131411e-01
9.162386e-01
8.131411e-01
9.162386e-01
8.268114e-01
9.287823e-01
8.268114e-01
9.287823e-01
8.441772e-01
9.448160e-01
8.441772e-01
9.448160e-01
8.650401e-01
9.642972e-01
8.650401e-01
9.642972e-01
8.890716e-01
9.871944e-01
8.890716e-01
9.871944e-01
9.156270e-01
1.013462e+00
9.156270e-01
1.013462e+00
9.440357e-01
1.042700e+00
9.440357e-01
1.042700e+00
9.709951e-01
1.069321e+00
9.709951e-01
1.069321e+00
9.948214e-01
1.092968e+00
9.948214e-01
1.092968e+00
1.015745e+00
1.114053e+00
1.015745e+00
1.114053e+00
1.034173e+00
1.132724e+00
1.034173e+00
1.132724e+00
1.050424e+00
1.149184e+00
1.050424e+00
1.149184e+00
1.064774e+00
1.163677e+00
1.064774e+00
1.163677e+00
1.077458e+00
1.176437e+00
1.077458e+00
1.176437e+00
1.088673e+00
1.187674e+00
1.088673e+00
1.187674e+00
1.098584e+00
1.197569e+00
1.098584e+00
1.197569e+00
1.107330e+00
1.206274e+00
1.107330e+00
1.206274e+00
1.115025e+00
1.213913e+00
1.115025e+00
1.213913e+00
1.121765e+00
1.220589e+00
1.121765e+00
1.220589e+00
1.127626e+00
1.226385e+00
1.127626e+00
1.226385e+00
1.132672e+00
1.231369e+00
1.132672e+00
1.231369e+00
1.136956e+00
1.235596e+00
1.136956e+00
1.235596e+00
1.140518e+00
1.239108e+00
1.140518e+00
1.239108e+00
1.143391e+00
1.241940e+00
1.143391e+00
1.241940e+00
1.145601e+00
1.244117e+00
1.145601e+00
1.244117e+00
1.147167e+00
1.245659e+00
1.147167e+00
1.245659e+00
1.148102e+00
1.246579e+00
1.148102e+00
1.246579e+00
1.148412e+00
1.246885e+00
</DataArray>
<DataArray type="Float32" Name="V3" format="ascii">
0.000000e+00
0.000000e+00
1.628745e-02
1.098994e-02
1.628745e-02
1.098994e-02
3.217091e-02
2.165766e-02
3.217091e-02
2.165766e-02
4.724053e-02
3.169521e-02
4.724053e-02
3.169521e-02
6.107845e-02
4.081604e-02
6.107845e-02
4.081604e-02
7.324777e-02
4.876842e-02
7.324777e-02
4.876842e-02
8.327797e-02
5.534057e-02
8.327797e-02
5.534057e-02
9.065120e-02
6.034394e-02
9.065120e-02
6.034394e-02
9.484969e-02
6.353888e-02
9.484969e-02
6.353888e-02
9.560916e-02
6.399433e-02
9.560916e-02
6.399433e-02
9.456912e-02
6.329422e-02
9.456912e-02
6.329422e-02
9.234470e-02
6.319254e-02
9.234470e-02
6.319254e-02
8.956826e-02
6.324237e-02
8.956826e-02
6.324237e-02
8.638049e-02
6.307242e-02
8.638049e-02
6.307242e-02
8.285606e-02
6.247970e-02
8.285606e-02
6.247970e-02
7.903807e-02
6.137224e-02
7.903807e-02
6.137224e-02
7.495581e-02
5.972523e-02
7.495581e-02
5.972523e-02
7.063076e-02
5.755166e-02
7.063076e-02
5.755166e-02
6.608070e-02
5.488465e-02
6.608070e-02
5.488465e-02
6.132198e-02
5.176700e-02
6.132198e-02
5.176700e-02
5.637063e-02
4.824505e-02
5.637063e-02
4.824505e-02
5.124292e-02
4.436533e-02
5.124292e-02
4.436533e-02
4.595549e-02
4.017281e-02
4.595549e-02
4.017281e-02
4.052536e-02
3.571008e-02
4.052536e-02
3.571008e-02
3.496990e-02
3.101719e-02
3.496990e-02
3.101719e-02
2.930670e-02
2.613175e-02
2.930670e-02
2.613175e-02
2.355353e-02
2.108918e-02
2.355353e-02
2.108918e-02
1.772828e-02
1.592309e-02
1.772828e-02
1.592309e-02
1.184893e-02
1.066561e-02
1.184893e-02
1.066561e-02
5.933491e-03
5.347798e-03
5.933491e-03
5.347798e-03
0.000000e+00
0.000000e+00
</DataArray>
<DataArray type="Float32" Name="V4" format="ascii">
8.500000e-01
1.000000e+00
8.500000e-01
1.000000e+00
8.500000e-01
1.000000e+00
8.500000e-01
1.000000e+00
8.500000e-01
1.000000e+00
8.500000e-01
1.000000e+00
8.500000e-01
1.000000e+00
8.500000e-01
1.000000e+00
8.500000e-01
1.000000e+00
8.500000e-01
1.000000e+00
8.500000e-01
1.000000e+00
8.500000e-01
1.000000e+00
8.500000e-01
1.000000e+00
8.500000e-01
1.000000e+00
8.500000e-01
1.000000e+00
8.500000e-01
1.000000e+00
8.500000e-01
1.000000e+00
8.500000e-01
1.000000e+00
8.500000e-01
1.000000e+00
8.500000e-01
1.000000e+00
8.500000e-01
1.000000e+00
8.500000e-01
1.000000e+00
8.500000e-01
1.000000e+00
8.500000e-01
1.000000e+00
8.500000e-01
1.000000e+00
8.500000e-01
1.000000e+00
8.500000e-01
1.000000e+00
8.500000e-01
1.000000e+00
8.500000e-01
1.000000e+00
8.500000e-01
1.000000e+00
8.500000e-01
1.000000e+00
8.500000e-01
1.000000e+00
8.500000e-01
1.000000e+00
8.500000e-01
1.000000e+00
8.500000e-01
1.000000e+00
8.500000e-01
1.000000e+00
8.500000e-01
1.000000e+00
8.500000e-01
1.000000e+00
8.500000e-01
1.000000e+00
8.500000e-01
1.000000e+00
8.500000e-01
1.000000e+00
8.500000e-01
1.000000e+00
8.500000e-01
1.000000e+00
8.500000e-01
1.000000e+00
8.500000e-01
1.000000e+00
8.500000e-01
1.000000e+00
8.500000e-01
1.000000e+00
8.500000e-01
1.000000e+00
8.500000e-01
1.000000e+00
8.500000e-01
1.000000e+00
8.500000e-01
1.000000e+00
8.500000e-01
1.000000e+00
8.500000e-01
1.000000e+00
8.500000e-01
1.000000e+00
8.500000e-01
1.000000e+00
8.500000e-01
1.000000e+00
8.500000e-01
1.000000e+00
8.500000e-01
1.000000e+00
8.500000e-01
1.000000e+00
8.500000e-01
1.000000e+00
</DataArray>
<DataArray type="Float32" Name="V5" format="ascii">
0.000000e+00
0.000000e+00
5.235988e-02
5.235988e-02
5.235988e-02
5.235988e-02
1.047198e-01
1.047198e-01
1.047198e-01
1.047198e-01
1.570796e-01
1.570796e-01
1.570796e-01
1.570796e-01
2.094395e-01
2.094395e-01
2.094395e-01
2.094395e-01
2.617994e-01
2.617994e-01
2.617994e-01
2.617994e-01
3.141593e-01
3.141593e-01
3.141593e-01
3.141593e-01
3.665191e-01
3.665191e-01
3.665191e-01
3.665191e-01
4.188790e-01
4.188790e-01
4.188790e-01
4.188790e-01
4.712389e-01
4.712389e-01
4.712389e-01
4.712389e-01
5.235988e-01
5.235988e-01
5.235988e-01
5.235988e-01
5.759587e-01
5.759587e-01
5.759587e-01
5.759587e-01
6.283185e-01
6.283185e-01
6.283185e-01
6.283185e-01
6.806784e-01
6.806784e-01
6.806784e-01
6.806784e-01
7.330383e-01
7.330383e-01
7.330383e-01
7.330383e-01
7.853982e-01
7.853982e-01
7.853982e-01
7.853982e-01
8.377580e-01
8.377580e-01
8.377580e-01
8.377580e-01
8.901179e-01
8.901179e-01
8.901179e-01
8.901179e-01
9.424778e-01
9.424778e-01
9.424778e-01
9.424778e-01
9.948377e-01
9.948377e-01
9.948377e-01
9.948377e-01
1.047198e+00
1.047198e+00
1.047198e+00
1.047198e+00
1.099557e+00
1.099557e+00
1.099557e+00
1.099557e+00
1.151917e+00
1.151917e+00
1.151917e+00
1.151917e+00
1.204277e+00
1.204277e+00
1.204277e+00
1.204277e+00
1.256637e+00
1.256637e+00
1.256637e+00
1.256637e+00
1.308997e+00
1.308997e+00
1.308997e+00
1.308997e+00
1.361357e+00
1.361357e+00
1.361357e+00
1.361357e+00
1.413717e+00
1.413717e+00
1.413717e+00
1.413717e+00
1.466077e+00
1.466077e+00
1.466077e+00
1.466077e+00
1.518436e+00
1.518436e+00
1.518436e+00
1.518436e+00
1.570796e+00
1.570796e+00
</DataArray>
</PointData>
</Piece></UnstructuredGrid>
</VTKFile>
