<?xml version="1.0"?>
<VTKFile type="UnstructuredGrid" version="0.1" byte_order="LittleEndian" compressor="vtkZLibDataCompressor">
<UnstructuredGrid>
<Piece NumberOfPoints="120" NumberOfCells="30">
<Points>
<DataArray type="Float32" NumberOfComponents="3" format="ascii">
0.000000e+00 5.220828e-01 0.000000e+00
0.000000e+00 6.000000e-01 0.000000e+00
6.728313e-02 5.221254e-01 0.000000e+00
6.728626e-02 6.000000e-01 0.000000e+00
6.728313e-02 5.221254e-01 0.000000e+00
6.728626e-02 6.000000e-01 0.000000e+00
1.345580e-01 5.222103e-01 0.000000e+00
1.345633e-01 6.000000e-01 0.000000e+00
1.345580e-01 5.222103e-01 0.000000e+00
1.345633e-01 6.000000e-01 0.000000e+00
2.018136e-01 5.223520e-01 0.000000e+00
2.018221e-01 6.000000e-01 0.000000e+00
2.018136e-01 5.223520e-01 0.000000e+00
2.018221e-01 6.000000e-01 0.000000e+00
2.690404e-01 5.225502e-01 0.000000e+00
2.690532e-01 6.000000e-01 0.000000e+00
2.690404e-01 5.225502e-01 0.000000e+00
2.690532e-01 6.000000e-01 0.000000e+00
3.362286e-01 5.228047e-01 0.000000e+00
3.362476e-01 6.000000e-01 0.000000e+00
3.362286e-01 5.228047e-01 0.000000e+00
3.362476e-01 6.000000e-01 0.000000e+00
4.033681e-01 5.231151e-01 0.000000e+00
4.033966e-01 6.000000e-01 0.000000e+00
4.033681e-01 5.231151e-01 0.000000e+00
4.033966e-01 6.000000e-01 0.000000e+00
4.704482e-01 5.234810e-01 0.000000e+00
4.704920e-01 6.000000e-01 0.000000e+00
4.704482e-01 5.234810e-01 0.000000e+00
4.704920e-01 6.000000e-01 0.000000e+00
5.374574e-01 5.239023e-01 0.000000e+00
5.375270e-01 6.000000e-01 0.000000e+00
5.374574e-01 5.239023e-01 0.000000e+00
5.375270e-01 6.000000e-01 0.000000e+00
6.043826e-01 5.243787e-01 0.000000e+00
6.044968e-01 6.000000e-01 0.000000e+00
6.043826e-01 5.243787e-01 0.000000e+00
6.044968e-01 6.000000e-01 0.000000e+00
6.712079e-01 5.249102e-01 0.000000e+00
6.714014e-01 6.000000e-01 0.000000e+00
6.712079e-01 5.249102e-01 0.000000e+00
6.714014e-01 6.000000e-01 0.000000e+00
7.379125e-01 5.254971e-01 0.000000e+00
7.382488e-01 6.000000e-01 0.000000e+00
7.379125e-01 5.254971e-01 0.000000e+00
7.382488e-01 6.000000e-01 0.000000e+00
8.044656e-01 5.261402e-01 0.000000e+00
8.050629e-01 6.000000e-01 0.000000e+00
8.044656e-01 5.261402e-01 0.000000e+00
8.050629e-01 6.000000e-01 0.000000e+00
8.708176e-01 5.268406e-01 0.000000e+00
8.718965e-01 6.000000e-01 0.000000e+00
8.708176e-01 5.268406e-01 0.000000e+00
8.718965e-01 6.000000e-01 0.000000e+00
9.368815e-01 5.275993e-01 0.000000e+00
9.388553e-01 6.000000e-01 0.000000e+00
9.368815e-01 5.275993e-01 0.000000e+00
9.388553e-01 6.000000e-01 0.000000e+00
1.002493e+00 5.284131e-01 0.000000e+00
1.006137e+00 6.000000e-01 0.000000e+00
1.002493e+00 5.284131e-01 0.000000e+00
1.006137e+00 6.000000e-01 0.000000e+00
1.067321e+00 5.292483e-01 0.000000e+00
1.074070e+00 6.000000e-01 0.000000e+00
1.067321e+00 5.292483e-01 0.000000e+00
1.074070e+00 6.000000e-01 0.000000e+00
1.130720e+00 5.298993e-01 0.000000e+00
1.142943e+00 6.000000e-01 0.000000e+00
1.130720e+00 5.298993e-01 0.000000e+00
1.142943e+00 6.000000e-01 0.000000e+00
1.192612e+00 5.289285e-01 0.000000e+00
1.210424e+00 5.981933e-01 0.000000e+00
1.192612e+00 5.289285e-01 0.000000e+00
1.210424e+00 5.981933e-01 0.000000e+00
1.252152e+00 5.181614e-01 0.000000e+00
1.275991e+00 5.842347e-01 0.000000e+00
1.252152e+00 5.181614e-01 0.000000e+00
1.275991e+00 5.842347e-01 0.000000e+00
1.308141e+00 4.978504e-01 0.000000e+00
1.339176e+00 5.596691e-01 0.000000e+00
1.308141e+00 4.978504e-01 0.000000e+00
1.339176e+00 5.596691e-01 0.000000e+00
1.360073e+00 4.691398e-01 0.000000e+00
1.398162e+00 5.257657e-01 0.000000e+00
1.360073e+00 4.691398e-01 0.000000e+00
1.398162e+00 5.257657e-01 0.000000e+00
1.407440e+00 4.332258e-01 0.000000e+00
1.451823e+00 4.839875e-01 0.000000e+00
1.407440e+00 4.332258e-01 0.000000e+00
1.451823e+00 4.839875e-01 0.000000e+00
1.449838e+00 3.912021e-01 0.000000e+00
1.499542e+00 4.357089e-01 0.000000e+00
1.449838e+00 3.912021e-01 0.000000e+00
1.499542e+00 4.357089e-01 0.000000e+00
1.486969e+00 3.440713e-01 0.000000e+00
1.541016e+00 3.821460e-01 0.000000e+00
1.486969e+00 3.440713e-01 0.000000e+00
1.541016e+00 3.821460e-01 0.000000e+00
1.518623e+00 2.927450e-01 0.000000e+00
1.576116e+00 3.243473e-01 0.000000e+00
1.518623e+00 2.927450e-01 0.000000e+00
1.576116e+00 3.243473e-01 0.000000e+00
1.544657e+00 2.380516e-01 0.000000e+00
1.604803e+00 2.632154e-01 0.000000e+00
1.544657e+00 2.380516e-01 0.000000e+00
1.604803e+00 2.632154e-01 0.000000e+00
1.564979e+00 1.807489e-01 0.000000e+00
1.627082e+00 1.995388e-01 0.000000e+00
1.564979e+00 1.807489e-01 0.000000e+00
1.627082e+00 1.995388e-01 0.000000e+00
1.579528e+00 1.215380e-01 0.000000e+00
1.642974e+00 1.340205e-01 0.000000e+00
1.579528e+00 1.215380e-01 0.000000e+00
1.642974e+00 1.340205e-01 0.000000e+00
1.588270e+00 6.107787e-02 0.000000e+00
1.652499e+00 6.730512e-02 0.000000e+00
1.588270e+00 6.107787e-02 0.000000e+00
1.652499e+00 6.730512e-02 0.000000e+00
1.591186e+00 7.791380e-12 0.000000e+00
1.655672e+00 8.107140e-12 0.000000e+00
</DataArray>
</Points>
<Cells>
<DataArray type="Int32" Name="connectivity" format="ascii">
0 1 3 2
4 5 7 6
8 9 11 10
12 13 15 14
16 17 19 18
20 21 23 22
24 25 27 26
28 29 31 30
32 33 35 34
36 37 39 38
40 41 43 42
44 45 47 46
48 49 51 50
52 53 55 54
56 57 59 58
60 61 63 62
64 65 67 66
68 69 71 70
72 73 75 74
76 77 79 78
80 81 83 82
84 85 87 86
88 89 91 90
92 93 95 94
96 97 99 98
100 101 103 102
104 105 107 106
108 109 111 110
112 113 115 114
116 117 119 118
</DataArray>
<DataArray type="Int32" Name="offsets" format="ascii">
4
8
12
16
20
24
28
32
36
40
44
48
52
56
60
64
68
72
76
80
84
88
92
96
100
104
108
112
116
120
</DataArray>
<DataArray type="UInt8" Name="types" format="ascii">
9
9
9
9
9
9
9
9
9
9
9
9
9
9
9
9
9
9
9
9
9
9
9
9
9
9
9
9
9
9
</DataArray>
</Cells>
<PointData>
<DataArray type="Float32" Name="V1" format="ascii">
4.079264e+02
-2.195954e+01
4.084117e+02
-2.147421e+01
4.089506e+02
-2.185127e+01
4.102720e+02
-2.052988e+01
4.113814e+02
-2.129733e+01
4.136198e+02
-1.905892e+01
4.152817e+02
-2.022770e+01
4.184619e+02
-1.704744e+01
4.206891e+02
-1.862610e+01
4.248490e+02
-1.446618e+01
4.276562e+02
-1.646499e+01
4.328471e+02
-1.127408e+01
4.362485e+02
-1.370414e+01
4.425368e+02
-7.415819e+00
4.465414e+02
-1.028623e+01
4.540111e+02
-2.816559e+00
4.586132e+02
-6.128610e+00
4.673695e+02
2.627681e+00
4.725304e+02
-1.108111e+00
4.827059e+02
9.067432e+00
4.883165e+02
4.967609e+00
5.000811e+02
1.673225e+01
5.058901e+02
1.241527e+01
5.194674e+02
2.599252e+01
5.249398e+02
2.178480e+01
5.406337e+02
3.747872e+01
5.446762e+02
3.408086e+01
5.629103e+02
5.231498e+01
5.633483e+02
5.122863e+01
5.847049e+02
7.258522e+01
5.773097e+02
7.708809e+01
6.025847e+02
1.023630e+02
5.789641e+02
1.202258e+02
6.101449e+02
1.514067e+02
5.541836e+02
2.063924e+02
5.999227e+02
2.521315e+02
5.544011e+02
2.867103e+02
5.879224e+02
3.202316e+02
5.738033e+02
3.296695e+02
6.052504e+02
3.611165e+02
6.058353e+02
3.609454e+02
6.362789e+02
3.913889e+02
6.438058e+02
3.856016e+02
6.725239e+02
4.143197e+02
6.829420e+02
4.059947e+02
7.091469e+02
4.321997e+02
7.202650e+02
4.232379e+02
7.434209e+02
4.463939e+02
7.540017e+02
4.378807e+02
7.737956e+02
4.576745e+02
7.831420e+02
4.501959e+02
7.994112e+02
4.664650e+02
8.071382e+02
4.603203e+02
8.198100e+02
4.729921e+02
8.257123e+02
4.683241e+02
8.347628e+02
4.773745e+02
8.387363e+02
4.742449e+02
8.441635e+02
4.796720e+02
8.461596e+02
4.781038e+02
8.479679e+02
4.799121e+02
</DataArray>
<DataArray type="Float32" Name="V2" format="ascii">
5.220828e-01
6.000000e-01
5.249312e-01
6.026992e-01
5.249312e-01
6.026992e-01
5.334147e-01
6.107788e-01
5.334147e-01
6.107788e-01
5.474916e-01
6.241849e-01
5.474916e-01
6.241849e-01
5.670679e-01
6.428279e-01
5.670679e-01
6.428279e-01
5.920129e-01
6.665828e-01
5.920129e-01
6.665828e-01
6.221596e-01
6.952903e-01
6.221596e-01
6.952903e-01
6.573052e-01
7.287575e-01
6.573052e-01
7.287575e-01
6.972122e-01
7.667592e-01
6.972122e-01
7.667592e-01
7.416088e-01
8.090397e-01
7.416088e-01
8.090397e-01
7.901895e-01
8.553159e-01
7.901895e-01
8.553159e-01
8.426149e-01
9.052815e-01
8.426149e-01
9.052815e-01
8.985093e-01
9.586143e-01
8.985093e-01
9.586143e-01
9.574553e-01
1.014990e+00
9.574553e-01
1.014990e+00
1.018979e+00
1.074104e+00
1.018979e+00
1.074104e+00
1.082514e+00
1.135710e+00
1.082514e+00
1.135710e+00
1.147310e+00
1.199668e+00
1.147310e+00
1.199668e+00
1.212211e+00
1.265826e+00
1.212211e+00
1.265826e+00
1.275740e+00
1.330863e+00
1.275740e+00
1.330863e+00
1.332354e+00
1.388333e+00
1.332354e+00
1.388333e+00
1.381809e+00
1.439595e+00
1.381809e+00
1.439595e+00
1.424819e+00
1.484464e+00
1.424819e+00
1.484464e+00
1.461969e+00
1.523162e+00
1.461969e+00
1.523162e+00
1.493734e+00
1.556088e+00
1.493734e+00
1.556088e+00
1.520515e+00
1.583683e+00
1.520515e+00
1.583683e+00
1.542645e+00
1.606358e+00
1.542645e+00
1.606358e+00
1.560396e+00
1.624460e+00
1.560396e+00
1.624460e+00
1.573986e+00
1.638265e+00
1.573986e+00
1.638265e+00
1.583579e+00
1.647982e+00
1.583579e+00
1.647982e+00
1.589290e+00
1.653756e+00
1.589290e+00
1.653756e+00
1.591186e+00
1.655672e+00
</DataArray>
<DataArray type="Float32" Name="V3" format="ascii">
0.000000e+00
0.000000e+00
3.986499e-02
3.579247e-02
3.986499e-02
3.579247e-02
7.923506e-02
7.110907e-02
7.923506e-02
7.110907e-02
1.176151e-01
1.054766e-01
1.176151e-01
1.054766e-01
1.545169e-01
1.384267e-01
1.545169e-01
1.384267e-01
1.894601e-01
1.694988e-01
1.894601e-01
1.694988e-01
2.219744e-01
1.982428e-01
2.219744e-01
1.982428e-01
2.516024e-01
2.242214e-01
2.516024e-01
2.242214e-01
2.779015e-01
2.470133e-01
2.779015e-01
2.470133e-01
3.004459e-01
2.662163e-01
3.004459e-01
2.662163e-01
3.188280e-01
2.814506e-01
3.188280e-01
2.814506e-01
3.326593e-01
2.923641e-01
3.326593e-01
2.923641e-01
3.415689e-01
2.986384e-01
3.415689e-01
2.986384e-01
3.452009e-01
2.999986e-01
3.452009e-01
2.999986e-01
3.432058e-01
2.962271e-01
3.432058e-01
2.962271e-01
3.352249e-01
2.871822e-01
3.352249e-01
2.871822e-01
3.208688e-01
2.728065e-01
3.208688e-01
2.728065e-01
2.997761e-01
2.529896e-01
2.997761e-01
2.529896e-01
2.730878e-01
2.275208e-01
2.730878e-01
2.275208e-01
2.474040e-01
2.049743e-01
2.474040e-01
2.049743e-01
2.229195e-01
1.849005e-01
2.229195e-01
1.849005e-01
1.994534e-01
1.662915e-01
1.994534e-01
1.662915e-01
1.766858e-01
1.483650e-01
1.766858e-01
1.483650e-01
1.543568e-01
1.306187e-01
1.543568e-01
1.306187e-01
1.322673e-01
1.127578e-01
1.322673e-01
1.127578e-01
1.102785e-01
9.463345e-02
1.102785e-01
9.463345e-02
8.830264e-02
7.619378e-02
8.830264e-02
7.619378e-02
6.629299e-02
5.744966e-02
6.629299e-02
5.744966e-02
4.423346e-02
3.845118e-02
4.423346e-02
3.845118e-02
2.212948e-02
1.927221e-02
2.212948e-02
1.927221e-02
0.000000e+00
0.000000e+00
</DataArray>
<DataArray type="Float32" Name="V4" format="ascii">
8.500000e-01
1.000000e+00
8.500000e-01
1.000000e+00
8.500000e-01
1.000000e+00
8.500000e-01
1.000000e+00
8.500000e-01
1.000000e+00
8.500000e-01
1.000000e+00
8.500000e-01
1.000000e+00
8.500000e-01
1.000000e+00
8.500000e-01
1.000000e+00
8.500000e-01
1.000000e+00
8.500000e-01
1.000000e+00
8.500000e-01
1.000000e+00
8.500000e-01
1.000000e+00
8.500000e-01
1.000000e+00
8.500000e-01
1.000000e+00
8.500000e-01
1.000000e+00
8.500000e-01
1.000000e+00
8.500000e-01
1.000000e+00
8.500000e-01
1.000000e+00
8.500000e-01
1.000000e+00
8.500000e-01
1.000000e+00
8.500000e-01
1.000000e+00
8.500000e-01
1.000000e+00
8.500000e-01
1.000000e+00
8.500000e-01
1.000000e+00
8.500000e-01
1.000000e+00
8.500000e-01
1.000000e+00
8.500000e-01
1.000000e+00
8.500000e-01
1.000000e+00
8.500000e-01
1.000000e+00
8.500000e-01
1.000000e+00
8.500000e-01
1.000000e+00
8.500000e-01
1.000000e+00
8.500000e-01
1.000000e+00
8.500000e-01
1.000000e+00
8.500000e-01
1.000000e+00
8.500000e-01
1.000000e+00
8.500000e-01
1.000000e+00
8.500000e-01
1.000000e+00
8.500000e-01
1.000000e+00
8.500000e-01
1.000000e+00
8.500000e-01
1.000000e+00
8.500000e-01
1.000000e+00
8.500000e-01
1.000000e+00
8.500000e-01
1.000000e+00
8.500000e-01
1.000000e+00
8.500000e-01
1.000000e+00
8.500000e-01
1.000000e+00
8.500000e-01
1.000000e+00
8.500000e-01
1.000000e+00
8.500000e-01
1.000000e+00
8.500000e-01
1.000000e+00
8.500000e-01
1.000000e+00
8.500000e-01
1.000000e+00
8.500000e-01
1.000000e+00
8.500000e-01
1.000000e+00
8.500000e-01
1.000000e+00
8.500000e-01
1.000000e+00
8.500000e-01
1.000000e+00
8.500000e-01
1.000000e+00
</DataArray>
<DataArray type="Float32" Name="V5" format="ascii">
0.000000e+00
0.000000e+00
5.235988e-02
5.235988e-02
5.235988e-02
5.235988e-02
1.047198e-01
1.047198e-01
1.047198e-01
1.047198e-01
1.570796e-01
1.570796e-01
1.570796e-01
1.570796e-01
2.094395e-01
2.094395e-01
2.094395e-01
2.094395e-01
2.617994e-01
2.617994e-01
2.617994e-01
2.617994e-01
3.141593e-01
3.141593e-01
3.141593e-01
3.141593e-01
3.665191e-01
3.665191e-01
3.665191e-01
3.665191e-01
4.188790e-01
4.188790e-01
4.188790e-01
4.188790e-01
4.712389e-01
4.712389e-01
4.712389e-01
4.712389e-01
5.235988e-01
5.235988e-01
5.235988e-01
5.235988e-01
5.759587e-01
5.759587e-01
5.759587e-01
5.759587e-01
6.283185e-01
6.283185e-01
6.283185e-01
6.283185e-01
6.806784e-01
6.806784e-01
6.806784e-01
6.806784e-01
7.330383e-01
7.330383e-01
7.330383e-01
7.330383e-01
7.853982e-01
7.853982e-01
7.853982e-01
7.853982e-01
8.377580e-01
8.377580e-01
8.377580e-01
8.377580e-01
8.901179e-01
8.901179e-01
8.901179e-01
8.901179e-01
9.424778e-01
9.424778e-01
9.424778e-01
9.424778e-01
9.948377e-01
9.948377e-01
9.948377e-01
9.948377e-01
1.047198e+00
1.047198e+00
1.047198e+00
1.047198e+00
1.099557e+00
1.099557e+00
1.099557e+00
1.099557e+00
1.151917e+00
1.151917e+00
1.151917e+00
1.151917e+00
1.204277e+00
1.204277e+00
1.204277e+00
1.204277e+00
1.256637e+00
1.256637e+00
1.256637e+00
1.256637e+00
1.308997e+00
1.308997e+00
1.308997e+00
1.308997e+00
1.361357e+00
1.361357e+00
1.361357e+00
1.361357e+00
1.413717e+00
1.413717e+00
1.413717e+00
1.413717e+00
1.466077e+00
1.466077e+00
1.466077e+00
1.466077e+00
1.518436e+00
1.518436e+00
1.518436e+00
1.518436e+00
1.570796e+00
1.570796e+00
</DataArray>
</PointData>
</Piece></UnstructuredGrid>
</VTKFile>
