<?xml version="1.0"?>
<VTKFile type="UnstructuredGrid" version="0.1" byte_order="LittleEndian" compressor="vtkZLibDataCompressor">
<UnstructuredGrid>
<Piece NumberOfPoints="120" NumberOfCells="30">
<Points>
<DataArray type="Float32" NumberOfComponents="3" format="ascii">
0.000000e+00 7.287142e-01 0.000000e+00
0.000000e+00 8.300000e-01 0.000000e+00
5.899801e-02 7.287614e-01 0.000000e+00
5.904691e-02 8.300000e-01 0.000000e+00
5.899801e-02 7.287614e-01 0.000000e+00
5.904691e-02 8.300000e-01 0.000000e+00
1.179773e-01 7.288596e-01 0.000000e+00
1.180927e-01 8.300000e-01 0.000000e+00
1.179773e-01 7.288596e-01 0.000000e+00
1.180927e-01 8.300000e-01 0.000000e+00
1.769151e-01 7.290260e-01 0.000000e+00
1.771422e-01 8.300000e-01 0.000000e+00
1.769151e-01 7.290260e-01 0.000000e+00
1.771422e-01 8.300000e-01 0.000000e+00
2.357860e-01 7.292644e-01 0.000000e+00
2.362081e-01 8.300000e-01 0.000000e+00
2.357860e-01 7.292644e-01 0.000000e+00
2.362081e-01 8.300000e-01 0.000000e+00
2.945557e-01 7.295815e-01 0.000000e+00
2.953205e-01 8.300000e-01 0.000000e+00
2.945557e-01 7.295815e-01 0.000000e+00
2.953205e-01 8.300000e-01 0.000000e+00
3.531740e-01 7.299863e-01 0.000000e+00
3.545365e-01 8.300000e-01 0.000000e+00
3.531740e-01 7.299863e-01 0.000000e+00
3.545365e-01 8.300000e-01 0.000000e+00
4.115601e-01 7.304879e-01 0.000000e+00
4.139541e-01 8.300000e-01 0.000000e+00
4.115601e-01 7.304879e-01 0.000000e+00
4.139541e-01 8.300000e-01 0.000000e+00
4.695745e-01 7.310850e-01 0.000000e+00
4.737233e-01 8.300000e-01 0.000000e+00
4.695745e-01 7.310850e-01 0.000000e+00
4.737233e-01 8.300000e-01 0.000000e+00
5.269701e-01 7.317272e-01 0.000000e+00
5.340360e-01 8.300000e-01 0.000000e+00
5.269701e-01 7.317272e-01 0.000000e+00
5.340360e-01 8.300000e-01 0.000000e+00
5.833233e-01 7.321262e-01 0.000000e+00
5.950397e-01 8.300000e-01 0.000000e+00
5.833233e-01 7.321262e-01 0.000000e+00
5.950397e-01 8.300000e-01 0.000000e+00
6.384251e-01 7.320136e-01 0.000000e+00
6.559026e-01 8.299979e-01 0.000000e+00
6.384251e-01 7.320136e-01 0.000000e+00
6.559026e-01 8.299979e-01 0.000000e+00
6.922526e-01 7.270647e-01 0.000000e+00
7.155614e-01 8.231464e-01 0.000000e+00
6.922526e-01 7.270647e-01 0.000000e+00
7.155614e-01 8.231464e-01 0.000000e+00
7.440333e-01 7.161445e-01 0.000000e+00
7.747087e-01 8.092196e-01 0.000000e+00
7.440333e-01 7.161445e-01 0.000000e+00
7.747087e-01 8.092196e-01 0.000000e+00
7.938367e-01 6.993382e-01 0.000000e+00
8.323375e-01 7.887082e-01 0.000000e+00
7.938367e-01 6.993382e-01 0.000000e+00
8.323375e-01 7.887082e-01 0.000000e+00
8.414735e-01 6.772943e-01 0.000000e+00
8.876071e-01 7.623110e-01 0.000000e+00
8.414735e-01 6.772943e-01 0.000000e+00
8.876071e-01 7.623110e-01 0.000000e+00
8.867304e-01 6.505312e-01 0.000000e+00
9.399629e-01 7.306842e-01 0.000000e+00
8.867304e-01 6.505312e-01 0.000000e+00
9.399629e-01 7.306842e-01 0.000000e+00
9.294263e-01 6.195531e-01 0.000000e+00
9.890849e-01 6.944757e-01 0.000000e+00
9.294263e-01 6.195531e-01 0.000000e+00
9.890849e-01 6.944757e-01 0.000000e+00
9.694062e-01 5.848177e-01 0.000000e+00
1.034788e+00 6.542654e-01 0.000000e+00
9.694062e-01 5.848177e-01 0.000000e+00
1.034788e+00 6.542654e-01 0.000000e+00
1.006542e+00 5.467454e-01 0.000000e+00
1.076967e+00 6.105642e-01 0.000000e+00
1.006542e+00 5.467454e-01 0.000000e+00
1.076967e+00 6.105642e-01 0.000000e+00
1.040727e+00 5.057204e-01 0.000000e+00
1.115565e+00 5.638183e-01 0.000000e+00
1.040727e+00 5.057204e-01 0.000000e+00
1.115565e+00 5.638183e-01 0.000000e+00
1.071874e+00 4.620949e-01 0.000000e+00
1.150548e+00 5.144204e-01 0.000000e+00
1.071874e+00 4.620949e-01 0.000000e+00
1.150548e+00 5.144204e-01 0.000000e+00
1.099911e+00 4.161936e-01 0.000000e+00
1.181893e+00 4.627196e-01 0.000000e+00
1.099911e+00 4.161936e-01 0.000000e+00
1.181893e+00 4.627196e-01 0.000000e+00
1.124776e+00 3.683175e-01 0.000000e+00
1.209587e+00 4.090316e-01 0.000000e+00
1.124776e+00 3.683175e-01 0.000000e+00
1.209587e+00 4.090316e-01 0.000000e+00
1.146421e+00 3.187488e-01 0.000000e+00
1.233617e+00 3.536460e-01 0.000000e+00
1.146421e+00 3.187488e-01 0.000000e+00
1.233617e+00 3.536460e-01 0.000000e+00
1.164802e+00 2.677539e-01 0.000000e+00
1.253972e+00 2.968332e-01 0.000000e+00
1.164802e+00 2.677539e-01 0.000000e+00
1.253972e+00 2.968332e-01 0.000000e+00
1.179887e+00 2.155871e-01 0.000000e+00
1.270641e+00 2.388490e-01 0.000000e+00
1.179887e+00 2.155871e-01 0.000000e+00
1.270641e+00 2.388490e-01 0.000000e+00
1.191647e+00 1.624930e-01 0.000000e+00
1.283617e+00 1.799384e-01 0.000000e+00
1.191647e+00 1.624930e-01 0.000000e+00
1.283617e+00 1.799384e-01 0.000000e+00
1.200062e+00 1.087093e-01 0.000000e+00
1.292891e+00 1.203391e-01 0.000000e+00
1.200062e+00 1.087093e-01 0.000000e+00
1.292891e+00 1.203391e-01 0.000000e+00
1.205116e+00 5.446852e-02 0.000000e+00
1.298457e+00 6.028328e-02 0.000000e+00
1.205116e+00 5.446852e-02 0.000000e+00
1.298457e+00 6.028328e-02 0.000000e+00
1.206802e+00 5.909220e-12 0.000000e+00
1.300313e+00 6.367100e-12 0.000000e+00
</DataArray>
</Points>
<Cells>
<DataArray type="Int32" Name="connectivity" format="ascii">
0 1 3 2
4 5 7 6
8 9 11 10
12 13 15 14
16 17 19 18
20 21 23 22
24 25 27 26
28 29 31 30
32 33 35 34
36 37 39 38
40 41 43 42
44 45 47 46
48 49 51 50
52 53 55 54
56 57 59 58
60 61 63 62
64 65 67 66
68 69 71 70
72 73 75 74
76 77 79 78
80 81 83 82
84 85 87 86
88 89 91 90
92 93 95 94
96 97 99 98
100 101 103 102
104 105 107 106
108 109 111 110
112 113 115 114
116 117 119 118
</DataArray>
<DataArray type="Int32" Name="offsets" format="ascii">
4
8
12
16
20
24
28
32
36
40
44
48
52
56
60
64
68
72
76
80
84
88
92
96
100
104
108
112
116
120
</DataArray>
<DataArray type="UInt8" Name="types" format="ascii">
9
9
9
9
9
9
9
9
9
9
9
9
9
9
9
9
9
9
9
9
9
9
9
9
9
9
9
9
9
9
</DataArray>
</Cells>
<PointData>
<DataArray type="Float32" Name="V1" format="ascii">
1.374559e+02
-3.170427e+01
1.376022e+02
-3.155798e+01
1.377694e+02
-3.166417e+01
1.381651e+02
-3.126847e+01
1.384851e+02
-3.147532e+01
1.391638e+02
-3.079655e+01
1.395646e+02
-3.106848e+01
1.405437e+02
-3.008932e+01
1.409082e+02
-3.035505e+01
1.422174e+02
-2.904584e+01
1.423286e+02
-2.916999e+01
1.440165e+02
-2.748213e+01
1.434826e+02
-2.720928e+01
1.456263e+02
-2.506554e+01
1.437554e+02
-2.391013e+01
1.464781e+02
-2.118743e+01
1.420749e+02
-1.821175e+01
1.456006e+02
-1.468605e+01
1.366412e+02
-8.197230e+00
1.417650e+02
-3.073409e+00
1.241340e+02
1.178564e+01
1.329230e+02
2.057456e+01
1.133038e+02
3.854887e+01
1.199510e+02
4.519605e+01
1.098722e+02
5.139451e+01
1.142045e+02
5.572685e+01
1.097961e+02
5.920255e+01
1.138293e+02
6.323577e+01
1.124513e+02
6.444329e+01
1.162905e+02
6.828252e+01
1.165554e+02
6.809946e+01
1.201206e+02
7.166462e+01
1.212918e+02
7.070068e+01
1.245247e+02
7.393353e+01
1.261404e+02
7.259457e+01
1.290179e+02
7.547207e+01
1.307990e+02
7.400565e+01
1.333255e+02
7.653216e+01
1.351036e+02
7.508284e+01
1.372986e+02
7.727789e+01
1.389766e+02
7.592458e+01
1.408665e+02
7.781447e+01
1.423922e+02
7.659618e+01
1.440047e+02
7.820870e+01
1.453535e+02
7.714111e+01
1.467150e+02
7.850262e+01
1.478788e+02
7.758841e+01
1.490129e+02
7.872250e+01
1.499926e+02
7.795770e+01
1.509195e+02
7.888457e+01
1.517206e+02
7.826236e+01
1.524571e+02
7.899879e+01
1.530867e+02
7.851171e+01
1.536461e+02
7.907106e+01
1.541113e+02
7.871227e+01
1.545038e+02
7.910471e+01
1.548104e+02
7.886872e+01
1.550431e+02
7.910137e+01
1.551953e+02
7.898435e+01
1.552724e+02
7.906144e+01
</DataArray>
<DataArray type="Float32" Name="V2" format="ascii">
7.287142e-01
8.300000e-01
7.308504e-01
8.319528e-01
7.308504e-01
8.319528e-01
7.371988e-01
8.377972e-01
7.371988e-01
8.377972e-01
7.477261e-01
8.474925e-01
7.477261e-01
8.474925e-01
7.623509e-01
8.609729e-01
7.623509e-01
8.609729e-01
7.809583e-01
8.781530e-01
7.809583e-01
8.781530e-01
8.033950e-01
8.989347e-01
8.033950e-01
8.989347e-01
8.294591e-01
9.232196e-01
8.294591e-01
9.232196e-01
8.588725e-01
9.509234e-01
8.588725e-01
9.509234e-01
8.912131e-01
9.819827e-01
8.912131e-01
9.819827e-01
9.257015e-01
1.016321e+00
9.257015e-01
1.016321e+00
9.616295e-01
1.053325e+00
9.616295e-01
1.053325e+00
9.951036e-01
1.086536e+00
9.951036e-01
1.086536e+00
1.024784e+00
1.116422e+00
1.024784e+00
1.116422e+00
1.050890e+00
1.143067e+00
1.050890e+00
1.143067e+00
1.073931e+00
1.166668e+00
1.073931e+00
1.166668e+00
1.094259e+00
1.187452e+00
1.094259e+00
1.187452e+00
1.112197e+00
1.205711e+00
1.112197e+00
1.205711e+00
1.128013e+00
1.221728e+00
1.128013e+00
1.221728e+00
1.141936e+00
1.235758e+00
1.141936e+00
1.235758e+00
1.154156e+00
1.248017e+00
1.154156e+00
1.248017e+00
1.164834e+00
1.258688e+00
1.164834e+00
1.258688e+00
1.174100e+00
1.267918e+00
1.174100e+00
1.267918e+00
1.182062e+00
1.275831e+00
1.182062e+00
1.275831e+00
1.188810e+00
1.282522e+00
1.188810e+00
1.282522e+00
1.194412e+00
1.288070e+00
1.194412e+00
1.288070e+00
1.198926e+00
1.292534e+00
1.198926e+00
1.292534e+00
1.202395e+00
1.295962e+00
1.202395e+00
1.295962e+00
1.204851e+00
1.298387e+00
1.204851e+00
1.298387e+00
1.206316e+00
1.299833e+00
1.206316e+00
1.299833e+00
1.206802e+00
1.300313e+00
</DataArray>
<DataArray type="Float32" Name="V3" format="ascii">
0.000000e+00
0.000000e+00
2.077673e-02
1.552715e-02
2.077673e-02
1.552715e-02
4.114443e-02
3.068712e-02
4.114443e-02
3.068712e-02
6.069224e-02
4.512063e-02
6.069224e-02
4.512063e-02
7.901091e-02
5.847972e-02
7.901091e-02
5.847972e-02
9.568936e-02
7.043791e-02
9.568936e-02
7.043791e-02
1.103103e-01
8.070017e-02
1.103103e-01
8.070017e-02
1.224410e-01
8.901406e-02
1.224410e-01
8.901406e-02
1.316186e-01
9.517636e-02
1.316186e-01
9.517636e-02
1.373366e-01
9.901746e-02
1.373366e-01
9.901746e-02
1.391097e-01
1.003195e-01
1.391097e-01
1.003195e-01
1.367452e-01
9.803696e-02
1.367452e-01
9.803696e-02
1.326862e-01
9.506798e-02
1.326862e-01
9.506798e-02
1.275381e-01
9.280334e-02
1.275381e-01
9.280334e-02
1.219871e-01
9.079850e-02
1.219871e-01
9.079850e-02
1.160922e-01
8.859773e-02
1.160922e-01
8.859773e-02
1.098995e-01
8.595376e-02
1.098995e-01
8.595376e-02
1.034238e-01
8.274232e-02
1.034238e-01
8.274232e-02
9.667527e-02
7.892112e-02
9.667527e-02
7.892112e-02
8.966276e-02
7.449628e-02
8.966276e-02
7.449628e-02
8.239685e-02
6.950168e-02
8.239685e-02
6.950168e-02
7.489111e-02
6.398582e-02
7.489111e-02
6.398582e-02
6.716224e-02
5.800395e-02
6.716224e-02
5.800395e-02
5.922972e-02
5.161343e-02
5.922972e-02
5.161343e-02
5.111531e-02
4.487126e-02
5.111531e-02
4.487126e-02
4.284254e-02
3.783286e-02
4.284254e-02
3.783286e-02
3.443623e-02
3.055160e-02
3.443623e-02
3.055160e-02
2.592218e-02
2.307879e-02
2.592218e-02
2.307879e-02
1.732682e-02
1.546399e-02
1.732682e-02
1.546399e-02
8.677048e-03
7.755340e-03
8.677048e-03
7.755340e-03
0.000000e+00
0.000000e+00
</DataArray>
<DataArray type="Float32" Name="V4" format="ascii">
8.500000e-01
1.000000e+00
8.500000e-01
1.000000e+00
8.500000e-01
1.000000e+00
8.500000e-01
1.000000e+00
8.500000e-01
1.000000e+00
8.500000e-01
1.000000e+00
8.500000e-01
1.000000e+00
8.500000e-01
1.000000e+00
8.500000e-01
1.000000e+00
8.500000e-01
1.000000e+00
8.500000e-01
1.000000e+00
8.500000e-01
1.000000e+00
8.500000e-01
1.000000e+00
8.500000e-01
1.000000e+00
8.500000e-01
1.000000e+00
8.500000e-01
1.000000e+00
8.500000e-01
1.000000e+00
8.500000e-01
1.000000e+00
8.500000e-01
1.000000e+00
8.500000e-01
1.000000e+00
8.500000e-01
1.000000e+00
8.500000e-01
1.000000e+00
8.500000e-01
1.000000e+00
8.500000e-01
1.000000e+00
8.500000e-01
1.000000e+00
8.500000e-01
1.000000e+00
8.500000e-01
1.000000e+00
8.500000e-01
1.000000e+00
8.500000e-01
1.000000e+00
8.500000e-01
1.000000e+00
8.500000e-01
1.000000e+00
8.500000e-01
1.000000e+00
8.500000e-01
1.000000e+00
8.500000e-01
1.000000e+00
8.500000e-01
1.000000e+00
8.500000e-01
1.000000e+00
8.500000e-01
1.000000e+00
8.500000e-01
1.000000e+00
8.500000e-01
1.000000e+00
8.500000e-01
1.000000e+00
8.500000e-01
1.000000e+00
8.500000e-01
1.000000e+00
8.500000e-01
1.000000e+00
8.500000e-01
1.000000e+00
8.500000e-01
1.000000e+00
8.500000e-01
1.000000e+00
8.500000e-01
1.000000e+00
8.500000e-01
1.000000e+00
8.500000e-01
1.000000e+00
8.500000e-01
1.000000e+00
8.500000e-01
1.000000e+00
8.500000e-01
1.000000e+00
8.500000e-01
1.000000e+00
8.500000e-01
1.000000e+00
8.500000e-01
1.000000e+00
8.500000e-01
1.000000e+00
8.500000e-01
1.000000e+00
8.500000e-01
1.000000e+00
8.500000e-01
1.000000e+00
8.500000e-01
1.000000e+00
</DataArray>
<DataArray type="Float32" Name="V5" format="ascii">
0.000000e+00
0.000000e+00
5.235988e-02
5.235988e-02
5.235988e-02
5.235988e-02
1.047198e-01
1.047198e-01
1.047198e-01
1.047198e-01
1.570796e-01
1.570796e-01
1.570796e-01
1.570796e-01
2.094395e-01
2.094395e-01
2.094395e-01
2.094395e-01
2.617994e-01
2.617994e-01
2.617994e-01
2.617994e-01
3.141593e-01
3.141593e-01
3.141593e-01
3.141593e-01
3.665191e-01
3.665191e-01
3.665191e-01
3.665191e-01
4.188790e-01
4.188790e-01
4.188790e-01
4.188790e-01
4.712389e-01
4.712389e-01
4.712389e-01
4.712389e-01
5.235988e-01
5.235988e-01
5.235988e-01
5.235988e-01
5.759587e-01
5.759587e-01
5.759587e-01
5.759587e-01
6.283185e-01
6.283185e-01
6.283185e-01
6.283185e-01
6.806784e-01
6.806784e-01
6.806784e-01
6.806784e-01
7.330383e-01
7.330383e-01
7.330383e-01
7.330383e-01
7.853982e-01
7.853982e-01
7.853982e-01
7.853982e-01
8.377580e-01
8.377580e-01
8.377580e-01
8.377580e-01
8.901179e-01
8.901179e-01
8.901179e-01
8.901179e-01
9.424778e-01
9.424778e-01
9.424778e-01
9.424778e-01
9.948377e-01
9.948377e-01
9.948377e-01
9.948377e-01
1.047198e+00
1.047198e+00
1.047198e+00
1.047198e+00
1.099557e+00
1.099557e+00
1.099557e+00
1.099557e+00
1.151917e+00
1.151917e+00
1.151917e+00
1.151917e+00
1.204277e+00
1.204277e+00
1.204277e+00
1.204277e+00
1.256637e+00
1.256637e+00
1.256637e+00
1.256637e+00
1.308997e+00
1.308997e+00
1.308997e+00
1.308997e+00
1.361357e+00
1.361357e+00
1.361357e+00
1.361357e+00
1.413717e+00
1.413717e+00
1.413717e+00
1.413717e+00
1.466077e+00
1.466077e+00
1.466077e+00
1.466077e+00
1.518436e+00
1.518436e+00
1.518436e+00
1.518436e+00
1.570796e+00
1.570796e+00
</DataArray>
</PointData>
</Piece></UnstructuredGrid>
</VTKFile>
