<?xml version="1.0"?>
<VTKFile type="UnstructuredGrid" version="0.1" byte_order="LittleEndian" compressor="vtkZLibDataCompressor">
<UnstructuredGrid>
<Piece NumberOfPoints="120" NumberOfCells="30">
<Points>
<DataArray type="Float32" NumberOfComponents="3" format="ascii">
0.000000e+00 8.832065e-01 0.000000e+00
0.000000e+00 9.900000e-01 0.000000e+00
5.717583e-02 8.832955e-01 0.000000e+00
5.793972e-02 9.900000e-01 0.000000e+00
5.717583e-02 8.832955e-01 0.000000e+00
5.793972e-02 9.900000e-01 0.000000e+00
1.142714e-01 8.834860e-01 0.000000e+00
1.160003e-01 9.900000e-01 0.000000e+00
1.142714e-01 8.834860e-01 0.000000e+00
1.160003e-01 9.900000e-01 0.000000e+00
1.711797e-01 8.838013e-01 0.000000e+00
1.743229e-01 9.900000e-01 0.000000e+00
1.711797e-01 8.838013e-01 0.000000e+00
1.743229e-01 9.900000e-01 0.000000e+00
2.277372e-01 8.842134e-01 0.000000e+00
2.330626e-01 9.900000e-01 0.000000e+00
2.277372e-01 8.842134e-01 0.000000e+00
2.330626e-01 9.900000e-01 0.000000e+00
2.836833e-01 8.845914e-01 0.000000e+00
2.923575e-01 9.900000e-01 0.000000e+00
2.836833e-01 8.845914e-01 0.000000e+00
2.923575e-01 9.900000e-01 0.000000e+00
3.387026e-01 8.845677e-01 0.000000e+00
3.521071e-01 9.900000e-01 0.000000e+00
3.387026e-01 8.845677e-01 0.000000e+00
3.521071e-01 9.900000e-01 0.000000e+00
3.929280e-01 8.829267e-01 0.000000e+00
4.110040e-01 9.881377e-01 0.000000e+00
3.929280e-01 8.829267e-01 0.000000e+00
4.110040e-01 9.881377e-01 0.000000e+00
4.458625e-01 8.763584e-01 0.000000e+00
4.696595e-01 9.797654e-01 0.000000e+00
4.458625e-01 8.763584e-01 0.000000e+00
4.696595e-01 9.797654e-01 0.000000e+00
4.975267e-01 8.651581e-01 0.000000e+00
5.279510e-01 9.662415e-01 0.000000e+00
4.975267e-01 8.651581e-01 0.000000e+00
5.279510e-01 9.662415e-01 0.000000e+00
5.478798e-01 8.494797e-01 0.000000e+00
5.851632e-01 9.477943e-01 0.000000e+00
5.478798e-01 8.494797e-01 0.000000e+00
5.851632e-01 9.477943e-01 0.000000e+00
5.967847e-01 8.297218e-01 0.000000e+00
6.408040e-01 9.248380e-01 0.000000e+00
5.967847e-01 8.297218e-01 0.000000e+00
6.408040e-01 9.248380e-01 0.000000e+00
6.440841e-01 8.061968e-01 0.000000e+00
6.945321e-01 8.977411e-01 0.000000e+00
6.440841e-01 8.061968e-01 0.000000e+00
6.945321e-01 8.977411e-01 0.000000e+00
6.896282e-01 7.791987e-01 0.000000e+00
7.461151e-01 8.668578e-01 0.000000e+00
6.896282e-01 7.791987e-01 0.000000e+00
7.461151e-01 8.668578e-01 0.000000e+00
7.332756e-01 7.489956e-01 0.000000e+00
7.953826e-01 8.325088e-01 0.000000e+00
7.332756e-01 7.489956e-01 0.000000e+00
7.953826e-01 8.325088e-01 0.000000e+00
7.748954e-01 7.158356e-01 0.000000e+00
8.422020e-01 7.949844e-01 0.000000e+00
7.748954e-01 7.158356e-01 0.000000e+00
8.422020e-01 7.949844e-01 0.000000e+00
8.143669e-01 6.799501e-01 0.000000e+00
8.864641e-01 7.545485e-01 0.000000e+00
8.143669e-01 6.799501e-01 0.000000e+00
8.864641e-01 7.545485e-01 0.000000e+00
8.515796e-01 6.415566e-01 0.000000e+00
9.280744e-01 7.114433e-01 0.000000e+00
8.515796e-01 6.415566e-01 0.000000e+00
9.280744e-01 7.114433e-01 0.000000e+00
8.864322e-01 6.008610e-01 0.000000e+00
9.669484e-01 6.658939e-01 0.000000e+00
8.864322e-01 6.008610e-01 0.000000e+00
9.669484e-01 6.658939e-01 0.000000e+00
9.188323e-01 5.580605e-01 0.000000e+00
1.003009e+00 6.181124e-01 0.000000e+00
9.188323e-01 5.580605e-01 0.000000e+00
1.003009e+00 6.181124e-01 0.000000e+00
9.486955e-01 5.133448e-01 0.000000e+00
1.036185e+00 5.683015e-01 0.000000e+00
9.486955e-01 5.133448e-01 0.000000e+00
1.036185e+00 5.683015e-01 0.000000e+00
9.759450e-01 4.668982e-01 0.000000e+00
1.066411e+00 5.166566e-01 0.000000e+00
9.759450e-01 4.668982e-01 0.000000e+00
1.066411e+00 5.166566e-01 0.000000e+00
1.000512e+00 4.189008e-01 0.000000e+00
1.093625e+00 4.633681e-01 0.000000e+00
1.000512e+00 4.189008e-01 0.000000e+00
1.093625e+00 4.633681e-01 0.000000e+00
1.022334e+00 3.695298e-01 0.000000e+00
1.117773e+00 4.086231e-01 0.000000e+00
1.022334e+00 3.695298e-01 0.000000e+00
1.117773e+00 4.086231e-01 0.000000e+00
1.041358e+00 3.189597e-01 0.000000e+00
1.138805e+00 3.526061e-01 0.000000e+00
1.041358e+00 3.189597e-01 0.000000e+00
1.138805e+00 3.526061e-01 0.000000e+00
1.057535e+00 2.673638e-01 0.000000e+00
1.156677e+00 2.955002e-01 0.000000e+00
1.057535e+00 2.673638e-01 0.000000e+00
1.156677e+00 2.955002e-01 0.000000e+00
1.070826e+00 2.149142e-01 0.000000e+00
1.171353e+00 2.374876e-01 0.000000e+00
1.070826e+00 2.149142e-01 0.000000e+00
1.171353e+00 2.374876e-01 0.000000e+00
1.081198e+00 1.617823e-01 0.000000e+00
1.182799e+00 1.787500e-01 0.000000e+00
1.081198e+00 1.617823e-01 0.000000e+00
1.182799e+00 1.787500e-01 0.000000e+00
1.088624e+00 1.081389e-01 0.000000e+00
1.190993e+00 1.194687e-01 0.000000e+00
1.088624e+00 1.081389e-01 0.000000e+00
1.190993e+00 1.194687e-01 0.000000e+00
1.093087e+00 5.415463e-02 0.000000e+00
1.195916e+00 5.982493e-02 0.000000e+00
1.093087e+00 5.415463e-02 0.000000e+00
1.195916e+00 5.982493e-02 0.000000e+00
1.094576e+00 5.359690e-12 0.000000e+00
1.197559e+00 5.863950e-12 0.000000e+00
</DataArray>
</Points>
<Cells>
<DataArray type="Int32" Name="connectivity" format="ascii">
0 1 3 2
4 5 7 6
8 9 11 10
12 13 15 14
16 17 19 18
20 21 23 22
24 25 27 26
28 29 31 30
32 33 35 34
36 37 39 38
40 41 43 42
44 45 47 46
48 49 51 50
52 53 55 54
56 57 59 58
60 61 63 62
64 65 67 66
68 69 71 70
72 73 75 74
76 77 79 78
80 81 83 82
84 85 87 86
88 89 91 90
92 93 95 94
96 97 99 98
100 101 103 102
104 105 107 106
108 109 111 110
112 113 115 114
116 117 119 118
</DataArray>
<DataArray type="Int32" Name="offsets" format="ascii">
4
8
12
16
20
24
28
32
36
40
44
48
52
56
60
64
68
72
76
80
84
88
92
96
100
104
108
112
116
120
</DataArray>
<DataArray type="UInt8" Name="types" format="ascii">
9
9
9
9
9
9
9
9
9
9
9
9
9
9
9
9
9
9
9
9
9
9
9
9
9
9
9
9
9
9
</DataArray>
</Cells>
<PointData>
<DataArray type="Float32" Name="V1" format="ascii">
1.021065e+02
-2.237301e+01
1.023044e+02
-2.217515e+01
1.016478e+02
-2.182838e+01
1.020600e+02
-2.141621e+01
1.005806e+02
-2.051655e+01
1.013026e+02
-1.979447e+01
9.846602e+01
-1.796735e+01
9.959919e+01
-1.683418e+01
9.449961e+01
-1.334331e+01
9.632799e+01
-1.151493e+01
8.738631e+01
-4.870143e+00
9.081348e+01
-1.442975e+00
7.679736e+01
1.140111e+01
8.215415e+01
1.675790e+01
7.208027e+01
2.310077e+01
7.436578e+01
2.538628e+01
6.956463e+01
2.866685e+01
7.116019e+01
3.026241e+01
6.874154e+01
3.214252e+01
7.015193e+01
3.355290e+01
6.910445e+01
3.440962e+01
7.037215e+01
3.567732e+01
7.009438e+01
3.591389e+01
7.122095e+01
3.704045e+01
7.138437e+01
3.691608e+01
7.237371e+01
3.790542e+01
7.277357e+01
3.758820e+01
7.363456e+01
3.844920e+01
7.414696e+01
3.804220e+01
7.489177e+01
3.878701e+01
7.544173e+01
3.835193e+01
7.608354e+01
3.899374e+01
7.662715e+01
3.856599e+01
7.717878e+01
3.911762e+01
7.769148e+01
3.871640e+01
7.816468e+01
3.918959e+01
7.863393e+01
3.882424e+01
7.903902e+01
3.922933e+01
7.945956e+01
3.890340e+01
7.980546e+01
3.924929e+01
8.017631e+01
3.896301e+01
8.047057e+01
3.925727e+01
8.079312e+01
3.900913e+01
8.104208e+01
3.925809e+01
8.131888e+01
3.904576e+01
8.152783e+01
3.925471e+01
8.176189e+01
3.907559e+01
8.193518e+01
3.924888e+01
8.212955e+01
3.910043e+01
8.227073e+01
3.924160e+01
8.242819e+01
3.912153e+01
8.254009e+01
3.923343e+01
8.266309e+01
3.913976e+01
8.274793e+01
3.922461e+01
8.283843e+01
3.915575e+01
8.289789e+01
3.921521e+01
8.295739e+01
3.916996e+01
8.299261e+01
3.920519e+01
8.302210e+01
3.918276e+01
8.303377e+01
3.919443e+01
</DataArray>
<DataArray type="Float32" Name="V2" format="ascii">
8.832065e-01
9.900000e-01
8.850773e-01
9.916756e-01
8.850773e-01
9.916756e-01
8.905908e-01
9.967020e-01
8.905908e-01
9.967020e-01
8.996986e-01
1.005082e+00
8.996986e-01
1.005082e+00
9.122404e-01
1.016823e+00
9.122404e-01
1.016823e+00
9.278723e-01
1.031934e+00
9.278723e-01
1.031934e+00
9.459387e-01
1.050353e+00
9.459387e-01
1.050353e+00
9.650959e-01
1.069797e+00
9.650959e-01
1.069797e+00
9.819418e-01
1.086088e+00
9.819418e-01
1.086088e+00
9.967339e-01
1.100612e+00
9.967339e-01
1.100612e+00
1.009611e+00
1.113396e+00
1.009611e+00
1.113396e+00
1.020896e+00
1.124641e+00
1.020896e+00
1.124641e+00
1.030810e+00
1.134524e+00
1.030810e+00
1.134524e+00
1.039548e+00
1.143220e+00
1.039548e+00
1.143220e+00
1.047269e+00
1.150889e+00
1.047269e+00
1.150889e+00
1.054106e+00
1.157666e+00
1.054106e+00
1.157666e+00
1.060168e+00
1.163663e+00
1.060168e+00
1.163663e+00
1.065546e+00
1.168975e+00
1.065546e+00
1.168975e+00
1.070316e+00
1.173680e+00
1.070316e+00
1.173680e+00
1.074539e+00
1.177842e+00
1.074539e+00
1.177842e+00
1.078267e+00
1.181513e+00
1.078267e+00
1.181513e+00
1.081541e+00
1.184736e+00
1.081541e+00
1.184736e+00
1.084395e+00
1.187545e+00
1.084395e+00
1.187545e+00
1.086859e+00
1.189968e+00
1.086859e+00
1.189968e+00
1.088954e+00
1.192029e+00
1.088954e+00
1.192029e+00
1.090699e+00
1.193746e+00
1.090699e+00
1.193746e+00
1.092109e+00
1.195132e+00
1.092109e+00
1.195132e+00
1.093195e+00
1.196200e+00
1.093195e+00
1.196200e+00
1.093964e+00
1.196957e+00
1.093964e+00
1.196957e+00
1.094424e+00
1.197408e+00
1.094424e+00
1.197408e+00
1.094576e+00
1.197559e+00
</DataArray>
<DataArray type="Float32" Name="V3" format="ascii">
0.000000e+00
0.000000e+00
1.086935e-02
6.047714e-03
1.086935e-02
6.047714e-03
2.129592e-02
1.188162e-02
2.129592e-02
1.188162e-02
3.081518e-02
1.730662e-02
3.081518e-02
1.730662e-02
3.892230e-02
2.213704e-02
3.892230e-02
2.213704e-02
4.506795e-02
2.616485e-02
4.506795e-02
2.616485e-02
4.877888e-02
2.894696e-02
4.877888e-02
2.894696e-02
5.041727e-02
2.958841e-02
5.041727e-02
2.958841e-02
5.086855e-02
3.054884e-02
5.086855e-02
3.054884e-02
5.052598e-02
3.174330e-02
5.052598e-02
3.174330e-02
4.973800e-02
3.286902e-02
4.973800e-02
3.286902e-02
4.860685e-02
3.372061e-02
4.860685e-02
3.372061e-02
4.720442e-02
3.420929e-02
4.720442e-02
3.420929e-02
4.557617e-02
3.430908e-02
4.557617e-02
3.430908e-02
4.375415e-02
3.402737e-02
4.375415e-02
3.402737e-02
4.176158e-02
3.338787e-02
4.176158e-02
3.338787e-02
3.961640e-02
3.242139e-02
3.961640e-02
3.242139e-02
3.733331e-02
3.116084e-02
3.733331e-02
3.116084e-02
3.492502e-02
2.963858e-02
3.492502e-02
2.963858e-02
3.240304e-02
2.788520e-02
3.240304e-02
2.788520e-02
2.977810e-02
2.592899e-02
2.977810e-02
2.592899e-02
2.706043e-02
2.379586e-02
2.706043e-02
2.379586e-02
2.425990e-02
2.150948e-02
2.425990e-02
2.150948e-02
2.138615e-02
1.909149e-02
2.138615e-02
1.909149e-02
1.844862e-02
1.656182e-02
1.844862e-02
1.656182e-02
1.545664e-02
1.393889e-02
1.545664e-02
1.393889e-02
1.241942e-02
1.123996e-02
1.241942e-02
1.123996e-02
9.346087e-03
8.481303e-03
9.346087e-03
8.481303e-03
6.245722e-03
5.678474e-03
6.245722e-03
5.678474e-03
3.127358e-03
2.846484e-03
3.127358e-03
2.846484e-03
0.000000e+00
0.000000e+00
</DataArray>
<DataArray type="Float32" Name="V4" format="ascii">
8.500000e-01
1.000000e+00
8.500000e-01
1.000000e+00
8.500000e-01
1.000000e+00
8.500000e-01
1.000000e+00
8.500000e-01
1.000000e+00
8.500000e-01
1.000000e+00
8.500000e-01
1.000000e+00
8.500000e-01
1.000000e+00
8.500000e-01
1.000000e+00
8.500000e-01
1.000000e+00
8.500000e-01
1.000000e+00
8.500000e-01
1.000000e+00
8.500000e-01
1.000000e+00
8.500000e-01
1.000000e+00
8.500000e-01
1.000000e+00
8.500000e-01
1.000000e+00
8.500000e-01
1.000000e+00
8.500000e-01
1.000000e+00
8.500000e-01
1.000000e+00
8.500000e-01
1.000000e+00
8.500000e-01
1.000000e+00
8.500000e-01
1.000000e+00
8.500000e-01
1.000000e+00
8.500000e-01
1.000000e+00
8.500000e-01
1.000000e+00
8.500000e-01
1.000000e+00
8.500000e-01
1.000000e+00
8.500000e-01
1.000000e+00
8.500000e-01
1.000000e+00
8.500000e-01
1.000000e+00
8.500000e-01
1.000000e+00
8.500000e-01
1.000000e+00
8.500000e-01
1.000000e+00
8.500000e-01
1.000000e+00
8.500000e-01
1.000000e+00
8.500000e-01
1.000000e+00
8.500000e-01
1.000000e+00
8.500000e-01
1.000000e+00
8.500000e-01
1.000000e+00
8.500000e-01
1.000000e+00
8.500000e-01
1.000000e+00
8.500000e-01
1.000000e+00
8.500000e-01
1.000000e+00
8.500000e-01
1.000000e+00
8.500000e-01
1.000000e+00
8.500000e-01
1.000000e+00
8.500000e-01
1.000000e+00
8.500000e-01
1.000000e+00
8.500000e-01
1.000000e+00
8.500000e-01
1.000000e+00
8.500000e-01
1.000000e+00
8.500000e-01
1.000000e+00
8.500000e-01
1.000000e+00
8.500000e-01
1.000000e+00
8.500000e-01
1.000000e+00
8.500000e-01
1.000000e+00
8.500000e-01
1.000000e+00
8.500000e-01
1.000000e+00
8.500000e-01
1.000000e+00
8.500000e-01
1.000000e+00
</DataArray>
<DataArray type="Float32" Name="V5" format="ascii">
0.000000e+00
0.000000e+00
5.235988e-02
5.235988e-02
5.235988e-02
5.235988e-02
1.047198e-01
1.047198e-01
1.047198e-01
1.047198e-01
1.570796e-01
1.570796e-01
1.570796e-01
1.570796e-01
2.094395e-01
2.094395e-01
2.094395e-01
2.094395e-01
2.617994e-01
2.617994e-01
2.617994e-01
2.617994e-01
3.141593e-01
3.141593e-01
3.141593e-01
3.141593e-01
3.665191e-01
3.665191e-01
3.665191e-01
3.665191e-01
4.188790e-01
4.188790e-01
4.188790e-01
4.188790e-01
4.712389e-01
4.712389e-01
4.712389e-01
4.712389e-01
5.235988e-01
5.235988e-01
5.235988e-01
5.235988e-01
5.759587e-01
5.759587e-01
5.759587e-01
5.759587e-01
6.283185e-01
6.283185e-01
6.283185e-01
6.283185e-01
6.806784e-01
6.806784e-01
6.806784e-01
6.806784e-01
7.330383e-01
7.330383e-01
7.330383e-01
7.330383e-01
7.853982e-01
7.853982e-01
7.853982e-01
7.853982e-01
8.377580e-01
8.377580e-01
8.377580e-01
8.377580e-01
8.901179e-01
8.901179e-01
8.901179e-01
8.901179e-01
9.424778e-01
9.424778e-01
9.424778e-01
9.424778e-01
9.948377e-01
9.948377e-01
9.948377e-01
9.948377e-01
1.047198e+00
1.047198e+00
1.047198e+00
1.047198e+00
1.099557e+00
1.099557e+00
1.099557e+00
1.099557e+00
1.151917e+00
1.151917e+00
1.151917e+00
1.151917e+00
1.204277e+00
1.204277e+00
1.204277e+00
1.204277e+00
1.256637e+00
1.256637e+00
1.256637e+00
1.256637e+00
1.308997e+00
1.308997e+00
1.308997e+00
1.308997e+00
1.361357e+00
1.361357e+00
1.361357e+00
1.361357e+00
1.413717e+00
1.413717e+00
1.413717e+00
1.413717e+00
1.466077e+00
1.466077e+00
1.466077e+00
1.466077e+00
1.518436e+00
1.518436e+00
1.518436e+00
1.518436e+00
1.570796e+00
1.570796e+00
</DataArray>
</PointData>
</Piece></UnstructuredGrid>
</VTKFile>
