<?xml version="1.0"?>
<VTKFile type="UnstructuredGrid" version="0.1" byte_order="LittleEndian" compressor="vtkZLibDataCompressor">
<UnstructuredGrid>
<Piece NumberOfPoints="120" NumberOfCells="30">
<Points>
<DataArray type="Float32" NumberOfComponents="3" format="ascii">
0.000000e+00 5.825995e-01 0.000000e+00
0.000000e+00 6.700000e-01 0.000000e+00
6.352925e-02 5.826424e-01 0.000000e+00
6.353048e-02 6.700000e-01 0.000000e+00
6.352925e-02 5.826424e-01 0.000000e+00
6.353048e-02 6.700000e-01 0.000000e+00
1.270472e-01 5.827293e-01 0.000000e+00
1.270494e-01 6.700000e-01 0.000000e+00
1.270472e-01 5.827293e-01 0.000000e+00
1.270494e-01 6.700000e-01 0.000000e+00
1.905398e-01 5.828742e-01 0.000000e+00
1.905463e-01 6.700000e-01 0.000000e+00
1.905398e-01 5.828742e-01 0.000000e+00
1.905463e-01 6.700000e-01 0.000000e+00
2.539943e-01 5.830771e-01 0.000000e+00
2.540101e-01 6.700000e-01 0.000000e+00
2.539943e-01 5.830771e-01 0.000000e+00
2.540101e-01 6.700000e-01 0.000000e+00
3.173972e-01 5.833377e-01 0.000000e+00
3.174311e-01 6.700000e-01 0.000000e+00
3.173972e-01 5.833377e-01 0.000000e+00
3.174311e-01 6.700000e-01 0.000000e+00
3.807338e-01 5.836560e-01 0.000000e+00
3.808011e-01 6.700000e-01 0.000000e+00
3.807338e-01 5.836560e-01 0.000000e+00
3.808011e-01 6.700000e-01 0.000000e+00
4.439875e-01 5.840325e-01 0.000000e+00
4.441153e-01 6.700000e-01 0.000000e+00
4.439875e-01 5.840325e-01 0.000000e+00
4.441153e-01 6.700000e-01 0.000000e+00
5.071381e-01 5.844678e-01 0.000000e+00
5.073747e-01 6.700000e-01 0.000000e+00
5.071381e-01 5.844678e-01 0.000000e+00
5.073747e-01 6.700000e-01 0.000000e+00
5.701597e-01 5.849639e-01 0.000000e+00
5.705908e-01 6.700000e-01 0.000000e+00
5.701597e-01 5.849639e-01 0.000000e+00
5.705908e-01 6.700000e-01 0.000000e+00
6.330145e-01 5.855238e-01 0.000000e+00
6.337949e-01 6.700000e-01 0.000000e+00
6.330145e-01 5.855238e-01 0.000000e+00
6.337949e-01 6.700000e-01 0.000000e+00
6.956429e-01 5.861523e-01 0.000000e+00
6.970520e-01 6.700000e-01 0.000000e+00
6.956429e-01 5.861523e-01 0.000000e+00
6.970520e-01 6.700000e-01 0.000000e+00
7.579424e-01 5.868541e-01 0.000000e+00
7.604847e-01 6.700000e-01 0.000000e+00
7.579424e-01 5.868541e-01 0.000000e+00
7.604847e-01 6.700000e-01 0.000000e+00
8.197238e-01 5.876236e-01 0.000000e+00
8.243013e-01 6.700000e-01 0.000000e+00
8.197238e-01 5.876236e-01 0.000000e+00
8.243013e-01 6.700000e-01 0.000000e+00
8.806197e-01 5.883875e-01 0.000000e+00
8.887999e-01 6.700000e-01 0.000000e+00
8.806197e-01 5.883875e-01 0.000000e+00
8.887999e-01 6.700000e-01 0.000000e+00
9.400139e-01 5.888287e-01 0.000000e+00
9.540676e-01 6.700000e-01 0.000000e+00
9.400139e-01 5.888287e-01 0.000000e+00
9.540676e-01 6.700000e-01 0.000000e+00
9.980392e-01 5.871841e-01 0.000000e+00
1.017739e+00 6.674857e-01 0.000000e+00
9.980392e-01 5.871841e-01 0.000000e+00
1.017739e+00 6.674857e-01 0.000000e+00
1.053676e+00 5.767759e-01 0.000000e+00
1.080122e+00 6.539315e-01 0.000000e+00
1.053676e+00 5.767759e-01 0.000000e+00
1.080122e+00 6.539315e-01 0.000000e+00
1.106417e+00 5.586269e-01 0.000000e+00
1.140607e+00 6.316071e-01 0.000000e+00
1.106417e+00 5.586269e-01 0.000000e+00
1.140607e+00 6.316071e-01 0.000000e+00
1.155934e+00 5.333747e-01 0.000000e+00
1.197712e+00 6.013193e-01 0.000000e+00
1.155934e+00 5.333747e-01 0.000000e+00
1.197712e+00 6.013193e-01 0.000000e+00
1.201884e+00 5.019682e-01 0.000000e+00
1.250556e+00 5.642285e-01 0.000000e+00
1.201884e+00 5.019682e-01 0.000000e+00
1.250556e+00 5.642285e-01 0.000000e+00
1.243977e+00 4.652294e-01 0.000000e+00
1.298642e+00 5.214008e-01 0.000000e+00
1.243977e+00 4.652294e-01 0.000000e+00
1.298642e+00 5.214008e-01 0.000000e+00
1.281993e+00 4.239196e-01 0.000000e+00
1.341725e+00 4.737915e-01 0.000000e+00
1.281993e+00 4.239196e-01 0.000000e+00
1.341725e+00 4.737915e-01 0.000000e+00
1.315770e+00 3.787274e-01 0.000000e+00
1.379705e+00 4.222233e-01 0.000000e+00
1.315770e+00 3.787274e-01 0.000000e+00
1.379705e+00 4.222233e-01 0.000000e+00
1.345194e+00 3.302771e-01 0.000000e+00
1.412556e+00 3.674011e-01 0.000000e+00
1.345194e+00 3.302771e-01 0.000000e+00
1.412556e+00 3.674011e-01 0.000000e+00
1.370184e+00 2.791351e-01 0.000000e+00
1.440289e+00 3.099341e-01 0.000000e+00
1.370184e+00 2.791351e-01 0.000000e+00
1.440289e+00 3.099341e-01 0.000000e+00
1.390686e+00 2.258196e-01 0.000000e+00
1.462929e+00 2.503569e-01 0.000000e+00
1.390686e+00 2.258196e-01 0.000000e+00
1.462929e+00 2.503569e-01 0.000000e+00
1.406662e+00 1.708097e-01 0.000000e+00
1.480505e+00 1.891486e-01 0.000000e+00
1.406662e+00 1.708097e-01 0.000000e+00
1.480505e+00 1.891486e-01 0.000000e+00
1.418088e+00 1.145541e-01 0.000000e+00
1.493040e+00 1.267482e-01 0.000000e+00
1.418088e+00 1.145541e-01 0.000000e+00
1.493040e+00 1.267482e-01 0.000000e+00
1.424949e+00 5.747999e-02 0.000000e+00
1.500553e+00 6.356717e-02 0.000000e+00
1.424949e+00 5.747999e-02 0.000000e+00
1.500553e+00 6.356717e-02 0.000000e+00
1.427237e+00 6.988590e-12 0.000000e+00
1.503056e+00 7.359850e-12 0.000000e+00
</DataArray>
</Points>
<Cells>
<DataArray type="Int32" Name="connectivity" format="ascii">
0 1 3 2
4 5 7 6
8 9 11 10
12 13 15 14
16 17 19 18
20 21 23 22
24 25 27 26
28 29 31 30
32 33 35 34
36 37 39 38
40 41 43 42
44 45 47 46
48 49 51 50
52 53 55 54
56 57 59 58
60 61 63 62
64 65 67 66
68 69 71 70
72 73 75 74
76 77 79 78
80 81 83 82
84 85 87 86
88 89 91 90
92 93 95 94
96 97 99 98
100 101 103 102
104 105 107 106
108 109 111 110
112 113 115 114
116 117 119 118
</DataArray>
<DataArray type="Int32" Name="offsets" format="ascii">
4
8
12
16
20
24
28
32
36
40
44
48
52
56
60
64
68
72
76
80
84
88
92
96
100
104
108
112
116
120
</DataArray>
<DataArray type="UInt8" Name="types" format="ascii">
9
9
9
9
9
9
9
9
9
9
9
9
9
9
9
9
9
9
9
9
9
9
9
9
9
9
9
9
9
9
</DataArray>
</Cells>
<PointData>
<DataArray type="Float32" Name="V1" format="ascii">
2.621047e+02
-3.604369e+01
2.624015e+02
-3.574691e+01
2.627870e+02
-3.600214e+01
2.636003e+02
-3.518889e+01
2.643870e+02
-3.571536e+01
2.657702e+02
-3.433220e+01
2.669402e+02
-3.513214e+01
2.689097e+02
-3.316264e+01
2.704624e+02
-3.423531e+01
2.730437e+02
-3.165397e+01
2.749713e+02
-3.299471e+01
2.782002e+02
-2.976575e+01
2.804791e+02
-3.136121e+01
2.844036e+02
-2.743668e+01
2.869788e+02
-2.925480e+01
2.916626e+02
-2.457103e+01
2.944175e+02
-2.654195e+01
2.999460e+02
-2.101348e+01
3.026445e+02
-2.299218e+01
3.091353e+02
-1.650138e+01
3.113136e+02
-1.819343e+01
3.189331e+02
-1.057391e+01
3.196976e+02
-1.138319e+01
3.286845e+02
-2.396321e+00
3.263470e+02
-1.101842e+00
3.370424e+02
9.593534e+00
3.284754e+02
1.551898e+01
3.414724e+02
2.851593e+01
3.206717e+02
4.489919e+01
3.379177e+02
6.214522e+01
2.968453e+02
1.034677e+02
3.219914e+02
1.286137e+02
2.928822e+02
1.479806e+02
3.089337e+02
1.640321e+02
2.989947e+02
1.712858e+02
3.139875e+02
1.862786e+02
3.124184e+02
1.877118e+02
3.269415e+02
2.022349e+02
3.297924e+02
2.000179e+02
3.435356e+02
2.137611e+02
3.484691e+02
2.097205e+02
3.610913e+02
2.223427e+02
3.668331e+02
2.176133e+02
3.781367e+02
2.289169e+02
3.839344e+02
2.241667e+02
3.938320e+02
2.340642e+02
3.992554e+02
2.296603e+02
4.077304e+02
2.381353e+02
4.125407e+02
2.342661e+02
4.196147e+02
2.413400e+02
4.236877e+02
2.380919e+02
4.293987e+02
2.438029e+02
4.326764e+02
2.412078e+02
4.370661e+02
2.455976e+02
4.395263e+02
2.436607e+02
4.426324e+02
2.467668e+02
4.442705e+02
2.454821e+02
4.461219e+02
2.473336e+02
4.469398e+02
2.466937e+02
4.475549e+02
2.473088e+02
</DataArray>
<DataArray type="Float32" Name="V2" format="ascii">
5.825995e-01
6.700000e-01
5.851688e-01
6.724067e-01
5.851688e-01
6.724067e-01
5.928171e-01
6.796100e-01
5.928171e-01
6.796100e-01
6.055051e-01
6.915592e-01
6.055051e-01
6.915592e-01
6.231438e-01
7.081706e-01
6.231438e-01
7.081706e-01
6.456094e-01
7.293275e-01
6.456094e-01
7.293275e-01
6.727431e-01
7.548819e-01
6.727431e-01
7.548819e-01
7.043522e-01
7.846556e-01
7.043522e-01
7.846556e-01
7.402096e-01
8.184433e-01
7.402096e-01
8.184433e-01
7.800538e-01
8.560172e-01
7.800538e-01
8.560172e-01
8.235857e-01
8.971345e-01
8.235857e-01
8.971345e-01
8.704630e-01
9.415510e-01
8.704630e-01
9.415510e-01
9.202823e-01
9.890431e-01
9.202823e-01
9.890431e-01
9.725382e-01
1.039437e+00
9.725382e-01
1.039437e+00
1.026507e+00
1.092630e+00
1.026507e+00
1.092630e+00
1.081055e+00
1.148389e+00
1.081055e+00
1.148389e+00
1.134590e+00
1.202963e+00
1.134590e+00
1.202963e+00
1.181837e+00
1.250945e+00
1.181837e+00
1.250945e+00
1.223463e+00
1.294020e+00
1.223463e+00
1.294020e+00
1.259944e+00
1.331988e+00
1.259944e+00
1.331988e+00
1.291846e+00
1.365128e+00
1.291846e+00
1.365128e+00
1.319601e+00
1.393809e+00
1.319601e+00
1.393809e+00
1.343582e+00
1.418435e+00
1.343582e+00
1.418435e+00
1.364101e+00
1.439377e+00
1.364101e+00
1.439377e+00
1.381417e+00
1.456954e+00
1.381417e+00
1.456954e+00
1.395742e+00
1.471429e+00
1.395742e+00
1.471429e+00
1.407246e+00
1.483013e+00
1.407246e+00
1.483013e+00
1.416064e+00
1.491867e+00
1.416064e+00
1.491867e+00
1.422294e+00
1.498109e+00
1.422294e+00
1.498109e+00
1.426005e+00
1.501823e+00
1.426005e+00
1.501823e+00
1.427237e+00
1.503056e+00
</DataArray>
<DataArray type="Float32" Name="V3" format="ascii">
0.000000e+00
0.000000e+00
3.294903e-02
2.837832e-02
3.294903e-02
2.837832e-02
6.543940e-02
5.631938e-02
6.543940e-02
5.631938e-02
9.701231e-02
8.338927e-02
9.701231e-02
8.338927e-02
1.272154e-01
1.091586e-01
1.272154e-01
1.091586e-01
1.556033e-01
1.332061e-01
1.556033e-01
1.332061e-01
1.817397e-01
1.551220e-01
1.817397e-01
1.551220e-01
2.051995e-01
1.745109e-01
2.051995e-01
1.745109e-01
2.255693e-01
1.909963e-01
2.255693e-01
1.909963e-01
2.424480e-01
2.042265e-01
2.424480e-01
2.042265e-01
2.554447e-01
2.138824e-01
2.554447e-01
2.138824e-01
2.641738e-01
2.196889e-01
2.641738e-01
2.196889e-01
2.682441e-01
2.214289e-01
2.682441e-01
2.214289e-01
2.672415e-01
2.189578e-01
2.672415e-01
2.189578e-01
2.607199e-01
2.121896e-01
2.607199e-01
2.121896e-01
2.483255e-01
2.008661e-01
2.483255e-01
2.008661e-01
2.314557e-01
1.849617e-01
2.314557e-01
1.849617e-01
2.148607e-01
1.715426e-01
2.148607e-01
1.715426e-01
1.983971e-01
1.594510e-01
1.983971e-01
1.594510e-01
1.822410e-01
1.480118e-01
1.822410e-01
1.480118e-01
1.662249e-01
1.366420e-01
1.662249e-01
1.366420e-01
1.502312e-01
1.249994e-01
1.502312e-01
1.249994e-01
1.341637e-01
1.128985e-01
1.341637e-01
1.128985e-01
1.179574e-01
1.002626e-01
1.179574e-01
1.002626e-01
1.015757e-01
8.708456e-02
1.015757e-01
8.708456e-02
8.500600e-02
7.340085e-02
8.500600e-02
7.340085e-02
6.825493e-02
5.927408e-02
6.825493e-02
5.927408e-02
5.134366e-02
4.478209e-02
5.134366e-02
4.478209e-02
3.430394e-02
3.001132e-02
3.430394e-02
3.001132e-02
1.717486e-02
1.505283e-02
1.717486e-02
1.505283e-02
0.000000e+00
0.000000e+00
</DataArray>
<DataArray type="Float32" Name="V4" format="ascii">
8.500000e-01
1.000000e+00
8.500000e-01
1.000000e+00
8.500000e-01
1.000000e+00
8.500000e-01
1.000000e+00
8.500000e-01
1.000000e+00
8.500000e-01
1.000000e+00
8.500000e-01
1.000000e+00
8.500000e-01
1.000000e+00
8.500000e-01
1.000000e+00
8.500000e-01
1.000000e+00
8.500000e-01
1.000000e+00
8.500000e-01
1.000000e+00
8.500000e-01
1.000000e+00
8.500000e-01
1.000000e+00
8.500000e-01
1.000000e+00
8.500000e-01
1.000000e+00
8.500000e-01
1.000000e+00
8.500000e-01
1.000000e+00
8.500000e-01
1.000000e+00
8.500000e-01
1.000000e+00
8.500000e-01
1.000000e+00
8.500000e-01
1.000000e+00
8.500000e-01
1.000000e+00
8.500000e-01
1.000000e+00
8.500000e-01
1.000000e+00
8.500000e-01
1.000000e+00
8.500000e-01
1.000000e+00
8.500000e-01
1.000000e+00
8.500000e-01
1.000000e+00
8.500000e-01
1.000000e+00
8.500000e-01
1.000000e+00
8.500000e-01
1.000000e+00
8.500000e-01
1.000000e+00
8.500000e-01
1.000000e+00
8.500000e-01
1.000000e+00
8.500000e-01
1.000000e+00
8.500000e-01
1.000000e+00
8.500000e-01
1.000000e+00
8.500000e-01
1.000000e+00
8.500000e-01
1.000000e+00
8.500000e-01
1.000000e+00
8.500000e-01
1.000000e+00
8.500000e-01
1.000000e+00
8.500000e-01
1.000000e+00
8.500000e-01
1.000000e+00
8.500000e-01
1.000000e+00
8.500000e-01
1.000000e+00
8.500000e-01
1.000000e+00
8.500000e-01
1.000000e+00
8.500000e-01
1.000000e+00
8.500000e-01
1.000000e+00
8.500000e-01
1.000000e+00
8.500000e-01
1.000000e+00
8.500000e-01
1.000000e+00
8.500000e-01
1.000000e+00
8.500000e-01
1.000000e+00
8.500000e-01
1.000000e+00
8.500000e-01
1.000000e+00
8.500000e-01
1.000000e+00
8.500000e-01
1.000000e+00
</DataArray>
<DataArray type="Float32" Name="V5" format="ascii">
0.000000e+00
0.000000e+00
5.235988e-02
5.235988e-02
5.235988e-02
5.235988e-02
1.047198e-01
1.047198e-01
1.047198e-01
1.047198e-01
1.570796e-01
1.570796e-01
1.570796e-01
1.570796e-01
2.094395e-01
2.094395e-01
2.094395e-01
2.094395e-01
2.617994e-01
2.617994e-01
2.617994e-01
2.617994e-01
3.141593e-01
3.141593e-01
3.141593e-01
3.141593e-01
3.665191e-01
3.665191e-01
3.665191e-01
3.665191e-01
4.188790e-01
4.188790e-01
4.188790e-01
4.188790e-01
4.712389e-01
4.712389e-01
4.712389e-01
4.712389e-01
5.235988e-01
5.235988e-01
5.235988e-01
5.235988e-01
5.759587e-01
5.759587e-01
5.759587e-01
5.759587e-01
6.283185e-01
6.283185e-01
6.283185e-01
6.283185e-01
6.806784e-01
6.806784e-01
6.806784e-01
6.806784e-01
7.330383e-01
7.330383e-01
7.330383e-01
7.330383e-01
7.853982e-01
7.853982e-01
7.853982e-01
7.853982e-01
8.377580e-01
8.377580e-01
8.377580e-01
8.377580e-01
8.901179e-01
8.901179e-01
8.901179e-01
8.901179e-01
9.424778e-01
9.424778e-01
9.424778e-01
9.424778e-01
9.948377e-01
9.948377e-01
9.948377e-01
9.948377e-01
1.047198e+00
1.047198e+00
1.047198e+00
1.047198e+00
1.099557e+00
1.099557e+00
1.099557e+00
1.099557e+00
1.151917e+00
1.151917e+00
1.151917e+00
1.151917e+00
1.204277e+00
1.204277e+00
1.204277e+00
1.204277e+00
1.256637e+00
1.256637e+00
1.256637e+00
1.256637e+00
1.308997e+00
1.308997e+00
1.308997e+00
1.308997e+00
1.361357e+00
1.361357e+00
1.361357e+00
1.361357e+00
1.413717e+00
1.413717e+00
1.413717e+00
1.413717e+00
1.466077e+00
1.466077e+00
1.466077e+00
1.466077e+00
1.518436e+00
1.518436e+00
1.518436e+00
1.518436e+00
1.570796e+00
1.570796e+00
</DataArray>
</PointData>
</Piece></UnstructuredGrid>
</VTKFile>
