<?xml version="1.0"?>
<VTKFile type="UnstructuredGrid" version="0.1" byte_order="LittleEndian" compressor="vtkZLibDataCompressor">
<UnstructuredGrid>
<Piece NumberOfPoints="120" NumberOfCells="30">
<Points>
<DataArray type="Float32" NumberOfComponents="3" format="ascii">
0.000000e+00 8.733285e-01 0.000000e+00
0.000000e+00 9.800000e-01 0.000000e+00
5.725138e-02 8.734126e-01 0.000000e+00
5.791141e-02 9.800000e-01 0.000000e+00
5.725138e-02 8.734126e-01 0.000000e+00
5.791141e-02 9.800000e-01 0.000000e+00
1.144321e-01 8.735939e-01 0.000000e+00
1.159298e-01 9.800000e-01 0.000000e+00
1.144321e-01 8.735939e-01 0.000000e+00
1.159298e-01 9.800000e-01 0.000000e+00
1.714484e-01 8.738975e-01 0.000000e+00
1.741829e-01 9.800000e-01 0.000000e+00
1.714484e-01 8.738975e-01 0.000000e+00
1.741829e-01 9.800000e-01 0.000000e+00
2.281574e-01 8.743064e-01 0.000000e+00
2.328171e-01 9.800000e-01 0.000000e+00
2.281574e-01 8.743064e-01 0.000000e+00
2.328171e-01 9.800000e-01 0.000000e+00
2.843279e-01 8.747310e-01 0.000000e+00
2.919776e-01 9.800000e-01 0.000000e+00
2.843279e-01 8.747310e-01 0.000000e+00
2.919776e-01 9.800000e-01 0.000000e+00
3.396362e-01 8.748493e-01 0.000000e+00
3.516750e-01 9.800000e-01 0.000000e+00
3.396362e-01 8.748493e-01 0.000000e+00
3.516750e-01 9.800000e-01 0.000000e+00
3.940621e-01 8.740114e-01 0.000000e+00
4.109700e-01 9.792347e-01 0.000000e+00
3.940621e-01 8.740114e-01 0.000000e+00
4.109700e-01 9.792347e-01 0.000000e+00
4.473947e-01 8.688036e-01 0.000000e+00
4.696537e-01 9.724805e-01 0.000000e+00
4.473947e-01 8.688036e-01 0.000000e+00
4.696537e-01 9.724805e-01 0.000000e+00
4.993463e-01 8.588726e-01 0.000000e+00
5.281247e-01 9.602931e-01 0.000000e+00
4.993463e-01 8.588726e-01 0.000000e+00
5.281247e-01 9.602931e-01 0.000000e+00
5.499718e-01 8.442691e-01 0.000000e+00
5.856635e-01 9.429743e-01 0.000000e+00
5.499718e-01 8.442691e-01 0.000000e+00
5.856635e-01 9.429743e-01 0.000000e+00
5.991470e-01 8.254263e-01 0.000000e+00
6.417056e-01 9.209619e-01 0.000000e+00
5.991470e-01 8.254263e-01 0.000000e+00
6.417056e-01 9.209619e-01 0.000000e+00
6.467131e-01 8.026730e-01 0.000000e+00
6.958563e-01 8.946401e-01 0.000000e+00
6.467131e-01 8.026730e-01 0.000000e+00
6.958563e-01 8.946401e-01 0.000000e+00
6.925172e-01 7.763236e-01 0.000000e+00
7.478539e-01 8.643883e-01 0.000000e+00
6.925172e-01 7.763236e-01 0.000000e+00
7.478539e-01 8.643883e-01 0.000000e+00
7.364147e-01 7.466629e-01 0.000000e+00
7.975122e-01 8.305509e-01 0.000000e+00
7.364147e-01 7.466629e-01 0.000000e+00
7.975122e-01 8.305509e-01 0.000000e+00
7.782722e-01 7.139547e-01 0.000000e+00
8.446911e-01 7.934399e-01 0.000000e+00
7.782722e-01 7.139547e-01 0.000000e+00
8.446911e-01 7.934399e-01 0.000000e+00
8.179674e-01 6.784438e-01 0.000000e+00
8.892790e-01 7.533372e-01 0.000000e+00
8.179674e-01 6.784438e-01 0.000000e+00
8.892790e-01 7.533372e-01 0.000000e+00
8.553883e-01 6.403596e-01 0.000000e+00
9.311813e-01 7.104999e-01 0.000000e+00
8.553883e-01 6.403596e-01 0.000000e+00
9.311813e-01 7.104999e-01 0.000000e+00
8.904331e-01 5.999181e-01 0.000000e+00
9.703151e-01 6.651652e-01 0.000000e+00
8.904331e-01 5.999181e-01 0.000000e+00
9.703151e-01 6.651652e-01 0.000000e+00
9.230087e-01 5.573250e-01 0.000000e+00
1.006605e+00 6.175553e-01 0.000000e+00
9.230087e-01 5.573250e-01 0.000000e+00
1.006605e+00 6.175553e-01 0.000000e+00
9.530309e-01 5.127775e-01 0.000000e+00
1.039983e+00 5.678806e-01 0.000000e+00
9.530309e-01 5.127775e-01 0.000000e+00
1.039983e+00 5.678806e-01 0.000000e+00
9.804230e-01 4.664662e-01 0.000000e+00
1.070384e+00 5.163432e-01 0.000000e+00
9.804230e-01 4.664662e-01 0.000000e+00
1.070384e+00 5.163432e-01 0.000000e+00
1.005116e+00 4.185767e-01 0.000000e+00
1.097750e+00 4.631386e-01 0.000000e+00
1.005116e+00 4.185767e-01 0.000000e+00
1.097750e+00 4.631386e-01 0.000000e+00
1.027049e+00 3.692905e-01 0.000000e+00
1.122028e+00 4.084583e-01 0.000000e+00
1.027049e+00 3.692905e-01 0.000000e+00
1.122028e+00 4.084583e-01 0.000000e+00
1.046168e+00 3.187865e-01 0.000000e+00
1.143170e+00 3.524904e-01 0.000000e+00
1.046168e+00 3.187865e-01 0.000000e+00
1.143170e+00 3.524904e-01 0.000000e+00
1.062425e+00 2.672413e-01 0.000000e+00
1.161133e+00 2.954212e-01 0.000000e+00
1.062425e+00 2.672413e-01 0.000000e+00
1.161133e+00 2.954212e-01 0.000000e+00
1.075780e+00 2.148302e-01 0.000000e+00
1.175881e+00 2.374355e-01 0.000000e+00
1.075780e+00 2.148302e-01 0.000000e+00
1.175881e+00 2.374355e-01 0.000000e+00
1.086202e+00 1.617272e-01 0.000000e+00
1.187384e+00 1.787172e-01 0.000000e+00
1.086202e+00 1.617272e-01 0.000000e+00
1.187384e+00 1.787172e-01 0.000000e+00
1.093664e+00 1.081059e-01 0.000000e+00
1.195617e+00 1.194497e-01 0.000000e+00
1.093664e+00 1.081059e-01 0.000000e+00
1.195617e+00 1.194497e-01 0.000000e+00
1.098149e+00 5.413926e-02 0.000000e+00
1.200564e+00 5.981634e-02 0.000000e+00
1.098149e+00 5.413926e-02 0.000000e+00
1.200564e+00 5.981634e-02 0.000000e+00
1.099645e+00 5.384510e-12 0.000000e+00
1.202214e+00 5.886750e-12 0.000000e+00
</DataArray>
</Points>
<Cells>
<DataArray type="Int32" Name="connectivity" format="ascii">
0 1 3 2
4 5 7 6
8 9 11 10
12 13 15 14
16 17 19 18
20 21 23 22
24 25 27 26
28 29 31 30
32 33 35 34
36 37 39 38
40 41 43 42
44 45 47 46
48 49 51 50
52 53 55 54
56 57 59 58
60 61 63 62
64 65 67 66
68 69 71 70
72 73 75 74
76 77 79 78
80 81 83 82
84 85 87 86
88 89 91 90
92 93 95 94
96 97 99 98
100 101 103 102
104 105 107 106
108 109 111 110
112 113 115 114
116 117 119 118
</DataArray>
<DataArray type="Int32" Name="offsets" format="ascii">
4
8
12
16
20
24
28
32
36
40
44
48
52
56
60
64
68
72
76
80
84
88
92
96
100
104
108
112
116
120
</DataArray>
<DataArray type="UInt8" Name="types" format="ascii">
9
9
9
9
9
9
9
9
9
9
9
9
9
9
9
9
9
9
9
9
9
9
9
9
9
9
9
9
9
9
</DataArray>
</Cells>
<PointData>
<DataArray type="Float32" Name="V1" format="ascii">
1.033485e+02
-2.306253e+01
1.035339e+02
-2.287707e+01
1.029888e+02
-2.259389e+01
1.033853e+02
-2.219746e+01
1.021464e+02
-2.145400e+01
1.028403e+02
-2.076013e+01
1.004297e+02
-1.923228e+01
1.015085e+02
-1.815356e+01
9.711224e+01
-1.519342e+01
9.878904e+01
-1.351662e+01
9.103248e+01
-7.927729e+00
9.403836e+01
-4.921851e+00
8.095236e+01
6.287314e+00
8.623161e+01
1.156657e+01
7.423269e+01
2.108502e+01
7.733978e+01
2.419211e+01
7.119803e+01
2.800652e+01
7.299182e+01
2.980030e+01
6.992399e+01
3.213106e+01
7.147587e+01
3.368294e+01
7.009610e+01
3.480495e+01
7.149886e+01
3.620771e+01
7.105695e+01
3.658041e+01
7.231312e+01
3.783657e+01
7.241321e+01
3.776500e+01
7.352312e+01
3.887491e+01
7.391853e+01
3.856088e+01
7.488866e+01
3.953101e+01
7.542998e+01
3.909948e+01
7.627167e+01
3.994117e+01
7.686788e+01
3.946763e+01
7.759457e+01
4.019432e+01
7.819184e+01
3.972260e+01
7.881720e+01
4.034796e+01
7.938498e+01
3.990217e+01
7.992182e+01
4.043901e+01
8.044409e+01
4.003123e+01
8.090389e+01
4.049102e+01
8.137349e+01
4.012619e+01
8.176620e+01
4.051889e+01
8.218122e+01
4.019787e+01
8.251535e+01
4.053200e+01
8.287685e+01
4.025343e+01
8.315957e+01
4.053615e+01
8.347010e+01
4.029761e+01
8.370739e+01
4.053490e+01
8.397016e+01
4.033358e+01
8.416695e+01
4.053037e+01
8.438525e+01
4.036349e+01
8.454557e+01
4.052381e+01
8.472248e+01
4.038881e+01
8.484956e+01
4.051588e+01
8.498776e+01
4.041056e+01
8.508411e+01
4.050691e+01
8.518582e+01
4.042949e+01
8.525333e+01
4.049701e+01
8.532020e+01
4.044614e+01
8.536020e+01
4.048613e+01
8.539335e+01
4.046092e+01
8.540660e+01
4.047417e+01
</DataArray>
<DataArray type="Float32" Name="V2" format="ascii">
8.733285e-01
9.800000e-01
8.752119e-01
9.816878e-01
8.752119e-01
9.816878e-01
8.807697e-01
9.867494e-01
8.807697e-01
9.867494e-01
8.899588e-01
9.951828e-01
8.899588e-01
9.951828e-01
9.026373e-01
1.006990e+00
9.026373e-01
1.006990e+00
9.185148e-01
1.022177e+00
9.185148e-01
1.022177e+00
9.369844e-01
1.040709e+00
9.369844e-01
1.040709e+00
9.571792e-01
1.061473e+00
9.571792e-01
1.061473e+00
9.756634e-01
1.079431e+00
9.756634e-01
1.079431e+00
9.919596e-01
1.095391e+00
9.919596e-01
1.095391e+00
1.006144e+00
1.109471e+00
1.006144e+00
1.109471e+00
1.018580e+00
1.121882e+00
1.018580e+00
1.121882e+00
1.029505e+00
1.132793e+00
1.029505e+00
1.132793e+00
1.039132e+00
1.142396e+00
1.039132e+00
1.142396e+00
1.047636e+00
1.150859e+00
1.047636e+00
1.150859e+00
1.055164e+00
1.158334e+00
1.055164e+00
1.158334e+00
1.061836e+00
1.164944e+00
1.061836e+00
1.164944e+00
1.067753e+00
1.170796e+00
1.067753e+00
1.170796e+00
1.072998e+00
1.175976e+00
1.072998e+00
1.175976e+00
1.077641e+00
1.180555e+00
1.077641e+00
1.180555e+00
1.081738e+00
1.184592e+00
1.081738e+00
1.184592e+00
1.085335e+00
1.188134e+00
1.085335e+00
1.188134e+00
1.088470e+00
1.191220e+00
1.088470e+00
1.191220e+00
1.091175e+00
1.193882e+00
1.091175e+00
1.193882e+00
1.093475e+00
1.196145e+00
1.093475e+00
1.196145e+00
1.095391e+00
1.198029e+00
1.095391e+00
1.198029e+00
1.096938e+00
1.199551e+00
1.096938e+00
1.199551e+00
1.098129e+00
1.200722e+00
1.098129e+00
1.200722e+00
1.098973e+00
1.201553e+00
1.098973e+00
1.201553e+00
1.099477e+00
1.202049e+00
1.099477e+00
1.202049e+00
1.099645e+00
1.202214e+00
</DataArray>
<DataArray type="Float32" Name="V3" format="ascii">
0.000000e+00
0.000000e+00
1.146204e-02
6.542810e-03
1.146204e-02
6.542810e-03
2.248981e-02
1.285683e-02
2.248981e-02
1.285683e-02
3.262991e-02
1.873269e-02
3.262991e-02
1.873269e-02
4.139306e-02
2.397603e-02
4.139306e-02
2.397603e-02
4.824263e-02
2.838609e-02
4.824263e-02
2.838609e-02
5.266994e-02
3.162615e-02
5.266994e-02
3.162615e-02
5.467104e-02
3.274726e-02
5.467104e-02
3.274726e-02
5.534117e-02
3.350654e-02
5.534117e-02
3.350654e-02
5.500077e-02
3.459857e-02
5.500077e-02
3.459857e-02
5.415496e-02
3.571229e-02
5.415496e-02
3.571229e-02
5.292761e-02
3.658782e-02
5.292761e-02
3.658782e-02
5.140252e-02
3.710331e-02
5.140252e-02
3.710331e-02
4.963068e-02
3.721450e-02
4.963068e-02
3.721450e-02
4.764778e-02
3.691999e-02
4.764778e-02
3.691999e-02
4.547938e-02
3.624007e-02
4.547938e-02
3.624007e-02
4.314498e-02
3.520514e-02
4.314498e-02
3.520514e-02
4.066046e-02
3.384931e-02
4.066046e-02
3.384931e-02
3.803951e-02
3.220695e-02
3.803951e-02
3.220695e-02
3.529453e-02
3.031102e-02
3.529453e-02
3.031102e-02
3.243709e-02
2.819225e-02
3.243709e-02
2.819225e-02
2.947828e-02
2.587894e-02
2.947828e-02
2.587894e-02
2.642881e-02
2.339704e-02
2.642881e-02
2.339704e-02
2.329916e-02
2.077032e-02
2.329916e-02
2.077032e-02
2.009967e-02
1.802068e-02
2.009967e-02
1.802068e-02
1.684049e-02
1.516842e-02
1.684049e-02
1.516842e-02
1.353172e-02
1.223250e-02
1.353172e-02
1.223250e-02
1.018336e-02
9.230865e-03
1.018336e-02
9.230865e-03
6.805357e-03
6.180618e-03
6.805357e-03
6.180618e-03
3.407611e-03
3.098283e-03
3.407611e-03
3.098283e-03
0.000000e+00
0.000000e+00
</DataArray>
<DataArray type="Float32" Name="V4" format="ascii">
8.500000e-01
1.000000e+00
8.500000e-01
1.000000e+00
8.500000e-01
1.000000e+00
8.500000e-01
1.000000e+00
8.500000e-01
1.000000e+00
8.500000e-01
1.000000e+00
8.500000e-01
1.000000e+00
8.500000e-01
1.000000e+00
8.500000e-01
1.000000e+00
8.500000e-01
1.000000e+00
8.500000e-01
1.000000e+00
8.500000e-01
1.000000e+00
8.500000e-01
1.000000e+00
8.500000e-01
1.000000e+00
8.500000e-01
1.000000e+00
8.500000e-01
1.000000e+00
8.500000e-01
1.000000e+00
8.500000e-01
1.000000e+00
8.500000e-01
1.000000e+00
8.500000e-01
1.000000e+00
8.500000e-01
1.000000e+00
8.500000e-01
1.000000e+00
8.500000e-01
1.000000e+00
8.500000e-01
1.000000e+00
8.500000e-01
1.000000e+00
8.500000e-01
1.000000e+00
8.500000e-01
1.000000e+00
8.500000e-01
1.000000e+00
8.500000e-01
1.000000e+00
8.500000e-01
1.000000e+00
8.500000e-01
1.000000e+00
8.500000e-01
1.000000e+00
8.500000e-01
1.000000e+00
8.500000e-01
1.000000e+00
8.500000e-01
1.000000e+00
8.500000e-01
1.000000e+00
8.500000e-01
1.000000e+00
8.500000e-01
1.000000e+00
8.500000e-01
1.000000e+00
8.500000e-01
1.000000e+00
8.500000e-01
1.000000e+00
8.500000e-01
1.000000e+00
8.500000e-01
1.000000e+00
8.500000e-01
1.000000e+00
8.500000e-01
1.000000e+00
8.500000e-01
1.000000e+00
8.500000e-01
1.000000e+00
8.500000e-01
1.000000e+00
8.500000e-01
1.000000e+00
8.500000e-01
1.000000e+00
8.500000e-01
1.000000e+00
8.500000e-01
1.000000e+00
8.500000e-01
1.000000e+00
8.500000e-01
1.000000e+00
8.500000e-01
1.000000e+00
8.500000e-01
1.000000e+00
8.500000e-01
1.000000e+00
8.500000e-01
1.000000e+00
8.500000e-01
1.000000e+00
8.500000e-01
1.000000e+00
</DataArray>
<DataArray type="Float32" Name="V5" format="ascii">
0.000000e+00
0.000000e+00
5.235988e-02
5.235988e-02
5.235988e-02
5.235988e-02
1.047198e-01
1.047198e-01
1.047198e-01
1.047198e-01
1.570796e-01
1.570796e-01
1.570796e-01
1.570796e-01
2.094395e-01
2.094395e-01
2.094395e-01
2.094395e-01
2.617994e-01
2.617994e-01
2.617994e-01
2.617994e-01
3.141593e-01
3.141593e-01
3.141593e-01
3.141593e-01
3.665191e-01
3.665191e-01
3.665191e-01
3.665191e-01
4.188790e-01
4.188790e-01
4.188790e-01
4.188790e-01
4.712389e-01
4.712389e-01
4.712389e-01
4.712389e-01
5.235988e-01
5.235988e-01
5.235988e-01
5.235988e-01
5.759587e-01
5.759587e-01
5.759587e-01
5.759587e-01
6.283185e-01
6.283185e-01
6.283185e-01
6.283185e-01
6.806784e-01
6.806784e-01
6.806784e-01
6.806784e-01
7.330383e-01
7.330383e-01
7.330383e-01
7.330383e-01
7.853982e-01
7.853982e-01
7.853982e-01
7.853982e-01
8.377580e-01
8.377580e-01
8.377580e-01
8.377580e-01
8.901179e-01
8.901179e-01
8.901179e-01
8.901179e-01
9.424778e-01
9.424778e-01
9.424778e-01
9.424778e-01
9.948377e-01
9.948377e-01
9.948377e-01
9.948377e-01
1.047198e+00
1.047198e+00
1.047198e+00
1.047198e+00
1.099557e+00
1.099557e+00
1.099557e+00
1.099557e+00
1.151917e+00
1.151917e+00
1.151917e+00
1.151917e+00
1.204277e+00
1.204277e+00
1.204277e+00
1.204277e+00
1.256637e+00
1.256637e+00
1.256637e+00
1.256637e+00
1.308997e+00
1.308997e+00
1.308997e+00
1.308997e+00
1.361357e+00
1.361357e+00
1.361357e+00
1.361357e+00
1.413717e+00
1.413717e+00
1.413717e+00
1.413717e+00
1.466077e+00
1.466077e+00
1.466077e+00
1.466077e+00
1.518436e+00
1.518436e+00
1.518436e+00
1.518436e+00
1.570796e+00
1.570796e+00
</DataArray>
</PointData>
</Piece></UnstructuredGrid>
</VTKFile>
