<?xml version="1.0"?>
<VTKFile type="UnstructuredGrid" version="0.1" byte_order="LittleEndian" compressor="vtkZLibDataCompressor">
<UnstructuredGrid>
<Piece NumberOfPoints="120" NumberOfCells="30">
<Points>
<DataArray type="Float32" NumberOfComponents="3" format="ascii">
0.000000e+00 4.969613e-01 0.000000e+00
0.000000e+00 5.700000e-01 0.000000e+00
6.949356e-02 4.970039e-01 0.000000e+00
6.949795e-02 5.700000e-01 0.000000e+00
6.949356e-02 4.970039e-01 0.000000e+00
6.949795e-02 5.700000e-01 0.000000e+00
1.389807e-01 4.970875e-01 0.000000e+00
1.389884e-01 5.700000e-01 0.000000e+00
1.389807e-01 4.970875e-01 0.000000e+00
1.389884e-01 5.700000e-01 0.000000e+00
2.084519e-01 4.972271e-01 0.000000e+00
2.084636e-01 5.700000e-01 0.000000e+00
2.084519e-01 4.972271e-01 0.000000e+00
2.084636e-01 5.700000e-01 0.000000e+00
2.778995e-01 4.974225e-01 0.000000e+00
2.779157e-01 5.700000e-01 0.000000e+00
2.778995e-01 4.974225e-01 0.000000e+00
2.779157e-01 5.700000e-01 0.000000e+00
3.473156e-01 4.976732e-01 0.000000e+00
3.473372e-01 5.700000e-01 0.000000e+00
3.473156e-01 4.976732e-01 0.000000e+00
3.473372e-01 5.700000e-01 0.000000e+00
4.166921e-01 4.979791e-01 0.000000e+00
4.167206e-01 5.700000e-01 0.000000e+00
4.166921e-01 4.979791e-01 0.000000e+00
4.167206e-01 5.700000e-01 0.000000e+00
4.860207e-01 4.983397e-01 0.000000e+00
4.860585e-01 5.700000e-01 0.000000e+00
4.860207e-01 4.983397e-01 0.000000e+00
4.860585e-01 5.700000e-01 0.000000e+00
5.552924e-01 4.987547e-01 0.000000e+00
5.553445e-01 5.700000e-01 0.000000e+00
5.552924e-01 4.987547e-01 0.000000e+00
5.553445e-01 5.700000e-01 0.000000e+00
6.244979e-01 4.992237e-01 0.000000e+00
6.245729e-01 5.700000e-01 0.000000e+00
6.244979e-01 4.992237e-01 0.000000e+00
6.245729e-01 5.700000e-01 0.000000e+00
6.936261e-01 4.997464e-01 0.000000e+00
6.937405e-01 5.700000e-01 0.000000e+00
6.936261e-01 4.997464e-01 0.000000e+00
6.937405e-01 5.700000e-01 0.000000e+00
7.626638e-01 5.003226e-01 0.000000e+00
7.628479e-01 5.700000e-01 0.000000e+00
7.626638e-01 5.003226e-01 0.000000e+00
7.628479e-01 5.700000e-01 0.000000e+00
8.315926e-01 5.009520e-01 0.000000e+00
8.319036e-01 5.700000e-01 0.000000e+00
8.315926e-01 5.009520e-01 0.000000e+00
8.319036e-01 5.700000e-01 0.000000e+00
9.003851e-01 5.016345e-01 0.000000e+00
9.009310e-01 5.700000e-01 0.000000e+00
9.003851e-01 5.016345e-01 0.000000e+00
9.009310e-01 5.700000e-01 0.000000e+00
9.689953e-01 5.023697e-01 0.000000e+00
9.699812e-01 5.700000e-01 0.000000e+00
9.689953e-01 5.023697e-01 0.000000e+00
9.699812e-01 5.700000e-01 0.000000e+00
1.037340e+00 5.031562e-01 0.000000e+00
1.039158e+00 5.700000e-01 0.000000e+00
1.037340e+00 5.031562e-01 0.000000e+00
1.039158e+00 5.700000e-01 0.000000e+00
1.105261e+00 5.039894e-01 0.000000e+00
1.108660e+00 5.700000e-01 0.000000e+00
1.105261e+00 5.039894e-01 0.000000e+00
1.108660e+00 5.700000e-01 0.000000e+00
1.172428e+00 5.048463e-01 0.000000e+00
1.178837e+00 5.700000e-01 0.000000e+00
1.172428e+00 5.048463e-01 0.000000e+00
1.178837e+00 5.700000e-01 0.000000e+00
1.238179e+00 5.055782e-01 0.000000e+00
1.250047e+00 5.700000e-01 0.000000e+00
1.238179e+00 5.055782e-01 0.000000e+00
1.250047e+00 5.700000e-01 0.000000e+00
1.302411e+00 5.044998e-01 0.000000e+00
1.319618e+00 5.678957e-01 0.000000e+00
1.302411e+00 5.044998e-01 0.000000e+00
1.319618e+00 5.678957e-01 0.000000e+00
1.364104e+00 4.923690e-01 0.000000e+00
1.387105e+00 5.524527e-01 0.000000e+00
1.364104e+00 4.923690e-01 0.000000e+00
1.387105e+00 5.524527e-01 0.000000e+00
1.421839e+00 4.697494e-01 0.000000e+00
1.451724e+00 5.254886e-01 0.000000e+00
1.421839e+00 4.697494e-01 0.000000e+00
1.451724e+00 5.254886e-01 0.000000e+00
1.474928e+00 4.380457e-01 0.000000e+00
1.511472e+00 4.885011e-01 0.000000e+00
1.474928e+00 4.380457e-01 0.000000e+00
1.511472e+00 4.885011e-01 0.000000e+00
1.522759e+00 3.986222e-01 0.000000e+00
1.565143e+00 4.431474e-01 0.000000e+00
1.522759e+00 3.986222e-01 0.000000e+00
1.565143e+00 4.431474e-01 0.000000e+00
1.564855e+00 3.527362e-01 0.000000e+00
1.612078e+00 3.909741e-01 0.000000e+00
1.564855e+00 3.527362e-01 0.000000e+00
1.612078e+00 3.909741e-01 0.000000e+00
1.600871e+00 3.015421e-01 0.000000e+00
1.651949e+00 3.333448e-01 0.000000e+00
1.600871e+00 3.015421e-01 0.000000e+00
1.651949e+00 3.333448e-01 0.000000e+00
1.630571e+00 2.460931e-01 0.000000e+00
1.684611e+00 2.714393e-01 0.000000e+00
1.630571e+00 2.460931e-01 0.000000e+00
1.684611e+00 2.714393e-01 0.000000e+00
1.653794e+00 1.873520e-01 0.000000e+00
1.710011e+00 2.062830e-01 0.000000e+00
1.653794e+00 1.873520e-01 0.000000e+00
1.710011e+00 2.062830e-01 0.000000e+00
1.670441e+00 1.262075e-01 0.000000e+00
1.728143e+00 1.387834e-01 0.000000e+00
1.670441e+00 1.262075e-01 0.000000e+00
1.728143e+00 1.387834e-01 0.000000e+00
1.680450e+00 6.349190e-02 0.000000e+00
1.739016e+00 6.976510e-02 0.000000e+00
1.680450e+00 6.349190e-02 0.000000e+00
1.739016e+00 6.976510e-02 0.000000e+00
1.683790e+00 8.244830e-12 0.000000e+00
1.742639e+00 8.532980e-12 0.000000e+00
</DataArray>
</Points>
<Cells>
<DataArray type="Int32" Name="connectivity" format="ascii">
0 1 3 2
4 5 7 6
8 9 11 10
12 13 15 14
16 17 19 18
20 21 23 22
24 25 27 26
28 29 31 30
32 33 35 34
36 37 39 38
40 41 43 42
44 45 47 46
48 49 51 50
52 53 55 54
56 57 59 58
60 61 63 62
64 65 67 66
68 69 71 70
72 73 75 74
76 77 79 78
80 81 83 82
84 85 87 86
88 89 91 90
92 93 95 94
96 97 99 98
100 101 103 102
104 105 107 106
108 109 111 110
112 113 115 114
116 117 119 118
</DataArray>
<DataArray type="Int32" Name="offsets" format="ascii">
4
8
12
16
20
24
28
32
36
40
44
48
52
56
60
64
68
72
76
80
84
88
92
96
100
104
108
112
116
120
</DataArray>
<DataArray type="UInt8" Name="types" format="ascii">
9
9
9
9
9
9
9
9
9
9
9
9
9
9
9
9
9
9
9
9
9
9
9
9
9
9
9
9
9
9
</DataArray>
</Cells>
<PointData>
<DataArray type="Float32" Name="V1" format="ascii">
5.145490e+02
-4.465670e+00
5.151725e+02
-3.842123e+00
5.158160e+02
-4.304728e+00
5.175097e+02
-2.610977e+00
5.188394e+02
-3.544448e+00
5.217032e+02
-6.806824e-01
5.236992e+02
-2.101197e+00
5.277644e+02
1.963943e+00
5.304447e+02
4.394896e-02
5.357587e+02
5.357910e+00
5.391459e+02
2.922492e+00
5.457725e+02
9.549068e+00
5.498926e+02
6.578836e+00
5.579137e+02
1.459991e+01
5.627940e+02
1.107327e+01
5.723121e+02
2.059133e+01
5.779761e+02
1.648758e+01
5.891178e+02
2.762934e+01
5.955746e+02
2.293475e+01
6.084964e+02
3.585656e+01
6.157195e+02
3.057704e+01
6.306157e+02
4.547320e+01
6.385003e+02
3.965988e+01
6.556165e+02
5.677609e+01
6.638938e+02
5.057741e+01
6.835496e+02
7.023322e+01
6.916164e+02
6.400338e+01
7.142420e+02
8.662897e+01
7.208239e+02
8.115940e+01
7.470136e+02
1.073490e+02
7.495119e+02
1.043901e+02
7.800692e+02
1.349474e+02
7.733330e+02
1.384527e+02
8.092391e+02
1.743588e+02
7.828743e+02
1.940982e+02
8.260856e+02
2.373096e+02
7.586657e+02
3.049784e+02
8.214767e+02
3.677895e+02
7.690139e+02
4.058607e+02
8.162190e+02
4.530657e+02
8.029643e+02
4.618602e+02
8.480785e+02
5.069744e+02
8.523641e+02
5.040870e+02
8.959077e+02
5.476306e+02
9.080600e+02
5.383586e+02
9.488264e+02
5.791249e+02
9.638418e+02
5.672843e+02
1.000627e+03
6.040698e+02
1.015815e+03
5.919794e+02
1.047767e+03
6.239315e+02
1.061622e+03
6.129022e+02
1.088200e+03
6.394809e+02
1.099876e+03
6.302190e+02
1.120760e+03
6.511033e+02
1.129786e+03
6.439736e+02
1.144794e+03
6.589817e+02
1.150916e+03
6.541634e+02
1.159951e+03
6.631985e+02
1.163038e+03
6.607738e+02
1.166054e+03
6.637900e+02
</DataArray>
<DataArray type="Float32" Name="V2" format="ascii">
4.969613e-01
5.700000e-01
4.999597e-01
5.728561e-01
4.999597e-01
5.728561e-01
5.088919e-01
5.814057e-01
5.088919e-01
5.814057e-01
5.237145e-01
5.955932e-01
5.237145e-01
5.955932e-01
5.443311e-01
6.153261e-01
5.443311e-01
6.153261e-01
5.706073e-01
6.404752e-01
5.706073e-01
6.404752e-01
6.023712e-01
6.708759e-01
6.023712e-01
6.708759e-01
6.394144e-01
7.063286e-01
6.394144e-01
7.063286e-01
6.814928e-01
7.465999e-01
6.814928e-01
7.465999e-01
7.283277e-01
7.914239e-01
7.283277e-01
7.914239e-01
7.796062e-01
8.405047e-01
7.796062e-01
8.405047e-01
8.349823e-01
8.935190e-01
8.349823e-01
8.935190e-01
8.940765e-01
9.501204e-01
8.940765e-01
9.501204e-01
9.564739e-01
1.009947e+00
9.564739e-01
1.009947e+00
1.021718e+00
1.072637e+00
1.021718e+00
1.072637e+00
1.089296e+00
1.137846e+00
1.089296e+00
1.137846e+00
1.158604e+00
1.205299e+00
1.158604e+00
1.205299e+00
1.228858e+00
1.274841e+00
1.228858e+00
1.274841e+00
1.298879e+00
1.346347e+00
1.298879e+00
1.346347e+00
1.367064e+00
1.416023e+00
1.367064e+00
1.416023e+00
1.427534e+00
1.477494e+00
1.427534e+00
1.477494e+00
1.480130e+00
1.532063e+00
1.480130e+00
1.532063e+00
1.525583e+00
1.579490e+00
1.525583e+00
1.579490e+00
1.564471e+00
1.619997e+00
1.564471e+00
1.619997e+00
1.597267e+00
1.653995e+00
1.597267e+00
1.653995e+00
1.624368e+00
1.681936e+00
1.624368e+00
1.681936e+00
1.646104e+00
1.704233e+00
1.646104e+00
1.704233e+00
1.662741e+00
1.721228e+00
1.662741e+00
1.721228e+00
1.674482e+00
1.733183e+00
1.674482e+00
1.733183e+00
1.681470e+00
1.740284e+00
1.681470e+00
1.740284e+00
1.683790e+00
1.742639e+00
</DataArray>
<DataArray type="Float32" Name="V3" format="ascii">
0.000000e+00
0.000000e+00
4.338715e-02
3.957121e-02
4.338715e-02
3.957121e-02
8.625950e-02
7.864578e-02
8.625950e-02
7.864578e-02
1.281020e-01
1.167294e-01
1.281020e-01
1.167294e-01
1.684068e-01
1.533330e-01
1.684068e-01
1.533330e-01
2.066738e-01
1.879751e-01
2.066738e-01
1.879751e-01
2.424138e-01
2.201851e-01
2.424138e-01
2.201851e-01
2.751504e-01
2.495050e-01
2.751504e-01
2.495050e-01
3.044231e-01
2.754926e-01
3.044231e-01
2.754926e-01
3.297888e-01
2.977240e-01
3.297888e-01
2.977240e-01
3.508246e-01
3.157969e-01
3.508246e-01
3.157969e-01
3.671284e-01
3.293338e-01
3.671284e-01
3.293338e-01
3.783203e-01
3.379866e-01
3.783203e-01
3.379866e-01
3.840418e-01
3.414423e-01
3.840418e-01
3.414423e-01
3.839529e-01
3.394321e-01
3.839529e-01
3.394321e-01
3.777253e-01
3.317447e-01
3.777253e-01
3.317447e-01
3.650268e-01
3.182458e-01
3.650268e-01
3.182458e-01
3.454938e-01
2.988931e-01
3.454938e-01
2.988931e-01
3.187620e-01
2.736193e-01
3.187620e-01
2.736193e-01
2.862349e-01
2.424380e-01
2.862349e-01
2.424380e-01
2.556482e-01
2.151143e-01
2.556482e-01
2.151143e-01
2.269518e-01
1.908553e-01
2.269518e-01
1.908553e-01
1.997327e-01
1.685031e-01
1.997327e-01
1.685031e-01
1.735621e-01
1.471833e-01
1.735621e-01
1.471833e-01
1.480947e-01
1.263211e-01
1.480947e-01
1.263211e-01
1.230687e-01
1.055696e-01
1.230687e-01
1.055696e-01
9.829933e-02
8.474257e-02
9.829933e-02
8.474257e-02
7.366496e-02
6.376136e-02
7.366496e-02
6.376136e-02
4.909246e-02
4.261698e-02
4.909246e-02
4.261698e-02
2.454309e-02
2.134356e-02
2.454309e-02
2.134356e-02
0.000000e+00
0.000000e+00
</DataArray>
<DataArray type="Float32" Name="V4" format="ascii">
8.500000e-01
1.000000e+00
8.500000e-01
1.000000e+00
8.500000e-01
1.000000e+00
8.500000e-01
1.000000e+00
8.500000e-01
1.000000e+00
8.500000e-01
1.000000e+00
8.500000e-01
1.000000e+00
8.500000e-01
1.000000e+00
8.500000e-01
1.000000e+00
8.500000e-01
1.000000e+00
8.500000e-01
1.000000e+00
8.500000e-01
1.000000e+00
8.500000e-01
1.000000e+00
8.500000e-01
1.000000e+00
8.500000e-01
1.000000e+00
8.500000e-01
1.000000e+00
8.500000e-01
1.000000e+00
8.500000e-01
1.000000e+00
8.500000e-01
1.000000e+00
8.500000e-01
1.000000e+00
8.500000e-01
1.000000e+00
8.500000e-01
1.000000e+00
8.500000e-01
1.000000e+00
8.500000e-01
1.000000e+00
8.500000e-01
1.000000e+00
8.500000e-01
1.000000e+00
8.500000e-01
1.000000e+00
8.500000e-01
1.000000e+00
8.500000e-01
1.000000e+00
8.500000e-01
1.000000e+00
8.500000e-01
1.000000e+00
8.500000e-01
1.000000e+00
8.500000e-01
1.000000e+00
8.500000e-01
1.000000e+00
8.500000e-01
1.000000e+00
8.500000e-01
1.000000e+00
8.500000e-01
1.000000e+00
8.500000e-01
1.000000e+00
8.500000e-01
1.000000e+00
8.500000e-01
1.000000e+00
8.500000e-01
1.000000e+00
8.500000e-01
1.000000e+00
8.500000e-01
1.000000e+00
8.500000e-01
1.000000e+00
8.500000e-01
1.000000e+00
8.500000e-01
1.000000e+00
8.500000e-01
1.000000e+00
8.500000e-01
1.000000e+00
8.500000e-01
1.000000e+00
8.500000e-01
1.000000e+00
8.500000e-01
1.000000e+00
8.500000e-01
1.000000e+00
8.500000e-01
1.000000e+00
8.500000e-01
1.000000e+00
8.500000e-01
1.000000e+00
8.500000e-01
1.000000e+00
8.500000e-01
1.000000e+00
8.500000e-01
1.000000e+00
8.500000e-01
1.000000e+00
8.500000e-01
1.000000e+00
</DataArray>
<DataArray type="Float32" Name="V5" format="ascii">
0.000000e+00
0.000000e+00
5.235988e-02
5.235988e-02
5.235988e-02
5.235988e-02
1.047198e-01
1.047198e-01
1.047198e-01
1.047198e-01
1.570796e-01
1.570796e-01
1.570796e-01
1.570796e-01
2.094395e-01
2.094395e-01
2.094395e-01
2.094395e-01
2.617994e-01
2.617994e-01
2.617994e-01
2.617994e-01
3.141593e-01
3.141593e-01
3.141593e-01
3.141593e-01
3.665191e-01
3.665191e-01
3.665191e-01
3.665191e-01
4.188790e-01
4.188790e-01
4.188790e-01
4.188790e-01
4.712389e-01
4.712389e-01
4.712389e-01
4.712389e-01
5.235988e-01
5.235988e-01
5.235988e-01
5.235988e-01
5.759587e-01
5.759587e-01
5.759587e-01
5.759587e-01
6.283185e-01
6.283185e-01
6.283185e-01
6.283185e-01
6.806784e-01
6.806784e-01
6.806784e-01
6.806784e-01
7.330383e-01
7.330383e-01
7.330383e-01
7.330383e-01
7.853982e-01
7.853982e-01
7.853982e-01
7.853982e-01
8.377580e-01
8.377580e-01
8.377580e-01
8.377580e-01
8.901179e-01
8.901179e-01
8.901179e-01
8.901179e-01
9.424778e-01
9.424778e-01
9.424778e-01
9.424778e-01
9.948377e-01
9.948377e-01
9.948377e-01
9.948377e-01
1.047198e+00
1.047198e+00
1.047198e+00
1.047198e+00
1.099557e+00
1.099557e+00
1.099557e+00
1.099557e+00
1.151917e+00
1.151917e+00
1.151917e+00
1.151917e+00
1.204277e+00
1.204277e+00
1.204277e+00
1.204277e+00
1.256637e+00
1.256637e+00
1.256637e+00
1.256637e+00
1.308997e+00
1.308997e+00
1.308997e+00
1.308997e+00
1.361357e+00
1.361357e+00
1.361357e+00
1.361357e+00
1.413717e+00
1.413717e+00
1.413717e+00
1.413717e+00
1.466077e+00
1.466077e+00
1.466077e+00
1.466077e+00
1.518436e+00
1.518436e+00
1.518436e+00
1.518436e+00
1.570796e+00
1.570796e+00
</DataArray>
</PointData>
</Piece></UnstructuredGrid>
</VTKFile>
