<?xml version="1.0"?>
<VTKFile type="UnstructuredGrid" version="0.1" byte_order="LittleEndian" compressor="vtkZLibDataCompressor">
<UnstructuredGrid>
<Piece NumberOfPoints="120" NumberOfCells="30">
<Points>
<DataArray type="Float32" NumberOfComponents="3" format="ascii">
0.000000e+00 9.634134e-01 0.000000e+00
0.000000e+00 1.070000e+00 0.000000e+00
5.645123e-02 9.635362e-01 0.000000e+00
5.892419e-02 1.070000e+00 0.000000e+00
5.645123e-02 9.635362e-01 0.000000e+00
5.892419e-02 1.070000e+00 0.000000e+00
1.126403e-01 9.636959e-01 0.000000e+00
1.180690e-01 1.070000e+00 0.000000e+00
1.126403e-01 9.636959e-01 0.000000e+00
1.180690e-01 1.070000e+00 0.000000e+00
1.682551e-01 9.636818e-01 0.000000e+00
1.775844e-01 1.070000e+00 0.000000e+00
1.682551e-01 9.636818e-01 0.000000e+00
1.775844e-01 1.070000e+00 0.000000e+00
2.231674e-01 9.631934e-01 0.000000e+00
2.369626e-01 1.070000e+00 0.000000e+00
2.231674e-01 9.631934e-01 0.000000e+00
2.369626e-01 1.070000e+00 0.000000e+00
2.773930e-01 9.594330e-01 0.000000e+00
2.955709e-01 1.065502e+00 0.000000e+00
2.773930e-01 9.594330e-01 0.000000e+00
2.955709e-01 1.065502e+00 0.000000e+00
3.305368e-01 9.515131e-01 0.000000e+00
3.542271e-01 1.056037e+00 0.000000e+00
3.305368e-01 9.515131e-01 0.000000e+00
3.542271e-01 1.056037e+00 0.000000e+00
3.827472e-01 9.395977e-01 0.000000e+00
4.124375e-01 1.042255e+00 0.000000e+00
3.827472e-01 9.395977e-01 0.000000e+00
4.124375e-01 1.042255e+00 0.000000e+00
4.339389e-01 9.239883e-01 0.000000e+00
4.697314e-01 1.024435e+00 0.000000e+00
4.339389e-01 9.239883e-01 0.000000e+00
4.697314e-01 1.024435e+00 0.000000e+00
4.839789e-01 9.049271e-01 0.000000e+00
5.257774e-01 1.002829e+00 0.000000e+00
4.839789e-01 9.049271e-01 0.000000e+00
5.257774e-01 1.002829e+00 0.000000e+00
5.327253e-01 8.826226e-01 0.000000e+00
5.803333e-01 9.776682e-01 0.000000e+00
5.327253e-01 8.826226e-01 0.000000e+00
5.803333e-01 9.776682e-01 0.000000e+00
5.800365e-01 8.572614e-01 0.000000e+00
6.332084e-01 9.491672e-01 0.000000e+00
5.800365e-01 8.572614e-01 0.000000e+00
6.332084e-01 9.491672e-01 0.000000e+00
6.257745e-01 8.290158e-01 0.000000e+00
6.842423e-01 9.175228e-01 0.000000e+00
6.257745e-01 8.290158e-01 0.000000e+00
6.842423e-01 9.175228e-01 0.000000e+00
6.698072e-01 7.980485e-01 0.000000e+00
7.332934e-01 8.829184e-01 0.000000e+00
6.698072e-01 7.980485e-01 0.000000e+00
7.332934e-01 8.829184e-01 0.000000e+00
7.120089e-01 7.645151e-01 0.000000e+00
7.802335e-01 8.455279e-01 0.000000e+00
7.120089e-01 7.645151e-01 0.000000e+00
7.802335e-01 8.455279e-01 0.000000e+00
7.522607e-01 7.285667e-01 0.000000e+00
8.249435e-01 8.055180e-01 0.000000e+00
7.522607e-01 7.285667e-01 0.000000e+00
8.249435e-01 8.055180e-01 0.000000e+00
7.904505e-01 6.903516e-01 0.000000e+00
8.673120e-01 7.630506e-01 0.000000e+00
7.904505e-01 6.903516e-01 0.000000e+00
8.673120e-01 7.630506e-01 0.000000e+00
8.264730e-01 6.500163e-01 0.000000e+00
9.072345e-01 7.182851e-01 0.000000e+00
8.264730e-01 6.500163e-01 0.000000e+00
9.072345e-01 7.182851e-01 0.000000e+00
8.602299e-01 6.077064e-01 0.000000e+00
9.446127e-01 6.713793e-01 0.000000e+00
8.602299e-01 6.077064e-01 0.000000e+00
9.446127e-01 6.713793e-01 0.000000e+00
8.916296e-01 5.635677e-01 0.000000e+00
9.793542e-01 6.224907e-01 0.000000e+00
8.916296e-01 5.635677e-01 0.000000e+00
9.793542e-01 6.224907e-01 0.000000e+00
9.205875e-01 5.177466e-01 0.000000e+00
1.011373e+00 5.717774e-01 0.000000e+00
9.205875e-01 5.177466e-01 0.000000e+00
1.011373e+00 5.717774e-01 0.000000e+00
9.470257e-01 4.703903e-01 0.000000e+00
1.040591e+00 5.193984e-01 0.000000e+00
9.470257e-01 4.703903e-01 0.000000e+00
1.040591e+00 5.193984e-01 0.000000e+00
9.708734e-01 4.216471e-01 0.000000e+00
1.066933e+00 4.655141e-01 0.000000e+00
9.708734e-01 4.216471e-01 0.000000e+00
1.066933e+00 4.655141e-01 0.000000e+00
9.920672e-01 3.716668e-01 0.000000e+00
1.090335e+00 4.102865e-01 0.000000e+00
9.920672e-01 3.716668e-01 0.000000e+00
1.090335e+00 4.102865e-01 0.000000e+00
1.010550e+00 3.206002e-01 0.000000e+00
1.110738e+00 3.538791e-01 0.000000e+00
1.010550e+00 3.206002e-01 0.000000e+00
1.110738e+00 3.538791e-01 0.000000e+00
1.026274e+00 2.685999e-01 0.000000e+00
1.128090e+00 2.964570e-01 0.000000e+00
1.026274e+00 2.685999e-01 0.000000e+00
1.128090e+00 2.964570e-01 0.000000e+00
1.039196e+00 2.158193e-01 0.000000e+00
1.142347e+00 2.381870e-01 0.000000e+00
1.039196e+00 2.158193e-01 0.000000e+00
1.142347e+00 2.381870e-01 0.000000e+00
1.049282e+00 1.624132e-01 0.000000e+00
1.153474e+00 1.792368e-01 0.000000e+00
1.049282e+00 1.624132e-01 0.000000e+00
1.153474e+00 1.792368e-01 0.000000e+00
1.056506e+00 1.085369e-01 0.000000e+00
1.161442e+00 1.197756e-01 0.000000e+00
1.056506e+00 1.085369e-01 0.000000e+00
1.161442e+00 1.197756e-01 0.000000e+00
1.060848e+00 5.434697e-02 0.000000e+00
1.166231e+00 5.997317e-02 0.000000e+00
1.060848e+00 5.434697e-02 0.000000e+00
1.166231e+00 5.997317e-02 0.000000e+00
1.062296e+00 5.201630e-12 0.000000e+00
1.167828e+00 5.718370e-12 0.000000e+00
</DataArray>
</Points>
<Cells>
<DataArray type="Int32" Name="connectivity" format="ascii">
0 1 3 2
4 5 7 6
8 9 11 10
12 13 15 14
16 17 19 18
20 21 23 22
24 25 27 26
28 29 31 30
32 33 35 34
36 37 39 38
40 41 43 42
44 45 47 46
48 49 51 50
52 53 55 54
56 57 59 58
60 61 63 62
64 65 67 66
68 69 71 70
72 73 75 74
76 77 79 78
80 81 83 82
84 85 87 86
88 89 91 90
92 93 95 94
96 97 99 98
100 101 103 102
104 105 107 106
108 109 111 110
112 113 115 114
116 117 119 118
</DataArray>
<DataArray type="Int32" Name="offsets" format="ascii">
4
8
12
16
20
24
28
32
36
40
44
48
52
56
60
64
68
72
76
80
84
88
92
96
100
104
108
112
116
120
</DataArray>
<DataArray type="UInt8" Name="types" format="ascii">
9
9
9
9
9
9
9
9
9
9
9
9
9
9
9
9
9
9
9
9
9
9
9
9
9
9
9
9
9
9
</DataArray>
</Cells>
<PointData>
<DataArray type="Float32" Name="V1" format="ascii">
9.130206e+01
-1.305083e+01
9.174613e+01
-1.260676e+01
8.921660e+01
-1.104796e+01
9.004158e+01
-1.022298e+01
8.458912e+01
-6.476629e+00
8.645847e+01
-4.607280e+00
7.637029e+01
3.287316e+00
8.038995e+01
7.306971e+00
6.928256e+01
1.705112e+01
7.223239e+01
2.000095e+01
6.638484e+01
2.321408e+01
6.749641e+01
2.432565e+01
6.461388e+01
2.640888e+01
6.545545e+01
2.725044e+01
6.396852e+01
2.839442e+01
6.467466e+01
2.910056e+01
6.395919e+01
2.966373e+01
6.456039e+01
3.026494e+01
6.428672e+01
3.048355e+01
6.479918e+01
3.099601e+01
6.477619e+01
3.101685e+01
6.521273e+01
3.145339e+01
6.532699e+01
3.136590e+01
6.569877e+01
3.173768e+01
6.588241e+01
3.159574e+01
6.619918e+01
3.191252e+01
6.641189e+01
3.174809e+01
6.668206e+01
3.201825e+01
6.690030e+01
3.184984e+01
6.713099e+01
3.208052e+01
6.734151e+01
3.191842e+01
6.753868e+01
3.211560e+01
6.773447e+01
3.196519e+01
6.790313e+01
3.213385e+01
6.808096e+01
3.199753e+01
6.822525e+01
3.214182e+01
6.838408e+01
3.202030e+01
6.850743e+01
3.214365e+01
6.864750e+01
3.203667e+01
6.875277e+01
3.214195e+01
6.887496e+01
3.204875e+01
6.896452e+01
3.213831e+01
6.907004e+01
3.205793e+01
6.914583e+01
3.213372e+01
6.923595e+01
3.206514e+01
6.929958e+01
3.212877e+01
6.937555e+01
3.207101e+01
6.942834e+01
3.212380e+01
6.949131e+01
3.207596e+01
6.953434e+01
3.211898e+01
6.958529e+01
3.208030e+01
6.961940e+01
3.211441e+01
6.965917e+01
3.208423e+01
6.968505e+01
3.211010e+01
6.971430e+01
3.208791e+01
6.973243e+01
3.210604e+01
6.975166e+01
3.209146e+01
6.976240e+01
3.210220e+01
6.977193e+01
3.209497e+01
6.977549e+01
3.209853e+01
</DataArray>
<DataArray type="Float32" Name="V2" format="ascii">
9.634134e-01
1.070000e+00
9.651701e-01
1.071617e+00
9.651701e-01
1.071617e+00
9.701907e-01
1.076480e+00
9.701907e-01
1.076480e+00
9.781381e-01
1.084607e+00
9.781381e-01
1.084607e+00
9.885444e-01
1.095885e+00
9.885444e-01
1.095885e+00
9.985357e-01
1.105695e+00
9.985357e-01
1.105695e+00
1.007084e+00
1.113813e+00
1.007084e+00
1.113813e+00
1.014354e+00
1.120833e+00
1.014354e+00
1.120833e+00
1.020604e+00
1.126925e+00
1.020604e+00
1.126925e+00
1.026018e+00
1.132225e+00
1.026018e+00
1.132225e+00
1.030736e+00
1.136852e+00
1.030736e+00
1.136852e+00
1.034870e+00
1.140909e+00
1.034870e+00
1.140909e+00
1.038509e+00
1.144479e+00
1.038509e+00
1.144479e+00
1.041723e+00
1.147633e+00
1.041723e+00
1.147633e+00
1.044572e+00
1.150428e+00
1.044572e+00
1.150428e+00
1.047103e+00
1.152910e+00
1.047103e+00
1.152910e+00
1.049355e+00
1.155119e+00
1.049355e+00
1.155119e+00
1.051359e+00
1.157085e+00
1.051359e+00
1.157085e+00
1.053141e+00
1.158835e+00
1.053141e+00
1.158835e+00
1.054725e+00
1.160388e+00
1.054725e+00
1.160388e+00
1.056125e+00
1.161764e+00
1.056125e+00
1.161764e+00
1.057359e+00
1.162975e+00
1.057359e+00
1.162975e+00
1.058436e+00
1.164034e+00
1.058436e+00
1.164034e+00
1.059368e+00
1.164949e+00
1.059368e+00
1.164949e+00
1.060161e+00
1.165729e+00
1.060161e+00
1.165729e+00
1.060823e+00
1.166380e+00
1.060823e+00
1.166380e+00
1.061358e+00
1.166906e+00
1.061358e+00
1.166906e+00
1.061771e+00
1.167311e+00
1.061771e+00
1.167311e+00
1.062063e+00
1.167599e+00
1.062063e+00
1.167599e+00
1.062238e+00
1.167771e+00
1.062238e+00
1.167771e+00
1.062296e+00
1.167828e+00
</DataArray>
<DataArray type="Float32" Name="V3" format="ascii">
0.000000e+00
0.000000e+00
5.946283e-03
2.843962e-03
5.946283e-03
2.843962e-03
1.128957e-02
5.576741e-03
1.128957e-02
5.576741e-03
1.543056e-02
8.013116e-03
1.543056e-02
8.013116e-03
1.803146e-02
9.318877e-03
1.803146e-02
9.318877e-03
1.962151e-02
9.727435e-03
1.962151e-02
9.727435e-03
2.032549e-02
1.055677e-02
2.032549e-02
1.055677e-02
2.060365e-02
1.153291e-02
2.060365e-02
1.153291e-02
2.060296e-02
1.244570e-02
2.060296e-02
1.244570e-02
2.040001e-02
1.319637e-02
2.040001e-02
1.319637e-02
2.004236e-02
1.374930e-02
2.004236e-02
1.374930e-02
1.956149e-02
1.409975e-02
1.956149e-02
1.409975e-02
1.897888e-02
1.425728e-02
1.897888e-02
1.425728e-02
1.830975e-02
1.423749e-02
1.830975e-02
1.423749e-02
1.756529e-02
1.405789e-02
1.756529e-02
1.405789e-02
1.675416e-02
1.373591e-02
1.675416e-02
1.373591e-02
1.588337e-02
1.328789e-02
1.588337e-02
1.328789e-02
1.495881e-02
1.272880e-02
1.495881e-02
1.272880e-02
1.398568e-02
1.207211e-02
1.398568e-02
1.207211e-02
1.296863e-02
1.132988e-02
1.296863e-02
1.132988e-02
1.191199e-02
1.051290e-02
1.191199e-02
1.051290e-02
1.081981e-02
9.630847e-03
1.081981e-02
9.630847e-03
9.695990e-03
8.692458e-03
9.695990e-03
8.692458e-03
8.544268e-03
7.705675e-03
8.544268e-03
7.705675e-03
7.368292e-03
6.677785e-03
7.368292e-03
6.677785e-03
6.171635e-03
5.615537e-03
6.171635e-03
5.615537e-03
4.957813e-03
4.525253e-03
4.957813e-03
4.525253e-03
3.730303e-03
3.412917e-03
3.730303e-03
3.412917e-03
2.492549e-03
2.284256e-03
2.492549e-03
2.284256e-03
1.247977e-03
1.144809e-03
1.247977e-03
1.144809e-03
0.000000e+00
0.000000e+00
</DataArray>
<DataArray type="Float32" Name="V4" format="ascii">
8.500000e-01
1.000000e+00
8.500000e-01
1.000000e+00
8.500000e-01
1.000000e+00
8.500000e-01
1.000000e+00
8.500000e-01
1.000000e+00
8.500000e-01
1.000000e+00
8.500000e-01
1.000000e+00
8.500000e-01
1.000000e+00
8.500000e-01
1.000000e+00
8.500000e-01
1.000000e+00
8.500000e-01
1.000000e+00
8.500000e-01
1.000000e+00
8.500000e-01
1.000000e+00
8.500000e-01
1.000000e+00
8.500000e-01
1.000000e+00
8.500000e-01
1.000000e+00
8.500000e-01
1.000000e+00
8.500000e-01
1.000000e+00
8.500000e-01
1.000000e+00
8.500000e-01
1.000000e+00
8.500000e-01
1.000000e+00
8.500000e-01
1.000000e+00
8.500000e-01
1.000000e+00
8.500000e-01
1.000000e+00
8.500000e-01
1.000000e+00
8.500000e-01
1.000000e+00
8.500000e-01
1.000000e+00
8.500000e-01
1.000000e+00
8.500000e-01
1.000000e+00
8.500000e-01
1.000000e+00
8.500000e-01
1.000000e+00
8.500000e-01
1.000000e+00
8.500000e-01
1.000000e+00
8.500000e-01
1.000000e+00
8.500000e-01
1.000000e+00
8.500000e-01
1.000000e+00
8.500000e-01
1.000000e+00
8.500000e-01
1.000000e+00
8.500000e-01
1.000000e+00
8.500000e-01
1.000000e+00
8.500000e-01
1.000000e+00
8.500000e-01
1.000000e+00
8.500000e-01
1.000000e+00
8.500000e-01
1.000000e+00
8.500000e-01
1.000000e+00
8.500000e-01
1.000000e+00
8.500000e-01
1.000000e+00
8.500000e-01
1.000000e+00
8.500000e-01
1.000000e+00
8.500000e-01
1.000000e+00
8.500000e-01
1.000000e+00
8.500000e-01
1.000000e+00
8.500000e-01
1.000000e+00
8.500000e-01
1.000000e+00
8.500000e-01
1.000000e+00
8.500000e-01
1.000000e+00
8.500000e-01
1.000000e+00
8.500000e-01
1.000000e+00
8.500000e-01
1.000000e+00
8.500000e-01
1.000000e+00
</DataArray>
<DataArray type="Float32" Name="V5" format="ascii">
0.000000e+00
0.000000e+00
5.235988e-02
5.235988e-02
5.235988e-02
5.235988e-02
1.047198e-01
1.047198e-01
1.047198e-01
1.047198e-01
1.570796e-01
1.570796e-01
1.570796e-01
1.570796e-01
2.094395e-01
2.094395e-01
2.094395e-01
2.094395e-01
2.617994e-01
2.617994e-01
2.617994e-01
2.617994e-01
3.141593e-01
3.141593e-01
3.141593e-01
3.141593e-01
3.665191e-01
3.665191e-01
3.665191e-01
3.665191e-01
4.188790e-01
4.188790e-01
4.188790e-01
4.188790e-01
4.712389e-01
4.712389e-01
4.712389e-01
4.712389e-01
5.235988e-01
5.235988e-01
5.235988e-01
5.235988e-01
5.759587e-01
5.759587e-01
5.759587e-01
5.759587e-01
6.283185e-01
6.283185e-01
6.283185e-01
6.283185e-01
6.806784e-01
6.806784e-01
6.806784e-01
6.806784e-01
7.330383e-01
7.330383e-01
7.330383e-01
7.330383e-01
7.853982e-01
7.853982e-01
7.853982e-01
7.853982e-01
8.377580e-01
8.377580e-01
8.377580e-01
8.377580e-01
8.901179e-01
8.901179e-01
8.901179e-01
8.901179e-01
9.424778e-01
9.424778e-01
9.424778e-01
9.424778e-01
9.948377e-01
9.948377e-01
9.948377e-01
9.948377e-01
1.047198e+00
1.047198e+00
1.047198e+00
1.047198e+00
1.099557e+00
1.099557e+00
1.099557e+00
1.099557e+00
1.151917e+00
1.151917e+00
1.151917e+00
1.151917e+00
1.204277e+00
1.204277e+00
1.204277e+00
1.204277e+00
1.256637e+00
1.256637e+00
1.256637e+00
1.256637e+00
1.308997e+00
1.308997e+00
1.308997e+00
1.308997e+00
1.361357e+00
1.361357e+00
1.361357e+00
1.361357e+00
1.413717e+00
1.413717e+00
1.413717e+00
1.413717e+00
1.466077e+00
1.466077e+00
1.466077e+00
1.466077e+00
1.518436e+00
1.518436e+00
1.518436e+00
1.518436e+00
1.570796e+00
1.570796e+00
</DataArray>
</PointData>
</Piece></UnstructuredGrid>
</VTKFile>
