<?xml version="1.0"?>
<VTKFile type="UnstructuredGrid" version="0.1" byte_order="LittleEndian" compressor="vtkZLibDataCompressor">
<UnstructuredGrid>
<Piece NumberOfPoints="120" NumberOfCells="30">
<Points>
<DataArray type="Float32" NumberOfComponents="3" format="ascii">
0.000000e+00 9.939428e-01 0.000000e+00
0.000000e+00 1.100000e+00 0.000000e+00
5.595291e-02 9.940283e-01 0.000000e+00
5.967076e-02 1.100000e+00 0.000000e+00
5.595291e-02 9.940283e-01 0.000000e+00
5.967076e-02 1.100000e+00 0.000000e+00
1.115106e-01 9.938442e-01 0.000000e+00
1.194974e-01 1.100000e+00 0.000000e+00
1.115106e-01 9.938442e-01 0.000000e+00
1.194974e-01 1.100000e+00 0.000000e+00
1.665287e-01 9.931898e-01 0.000000e+00
1.790193e-01 1.100000e+00 0.000000e+00
1.665287e-01 9.931898e-01 0.000000e+00
1.790193e-01 1.100000e+00 0.000000e+00
2.209676e-01 9.892578e-01 0.000000e+00
2.377884e-01 1.095508e+00 0.000000e+00
2.209676e-01 9.892578e-01 0.000000e+00
2.377884e-01 1.095508e+00 0.000000e+00
2.744791e-01 9.814938e-01 0.000000e+00
2.965993e-01 1.086448e+00 0.000000e+00
2.744791e-01 9.814938e-01 0.000000e+00
2.965993e-01 1.086448e+00 0.000000e+00
3.271909e-01 9.700621e-01 0.000000e+00
3.550139e-01 1.073425e+00 0.000000e+00
3.271909e-01 9.700621e-01 0.000000e+00
3.550139e-01 1.073425e+00 0.000000e+00
3.790177e-01 9.552164e-01 0.000000e+00
4.126377e-01 1.056676e+00 0.000000e+00
3.790177e-01 9.552164e-01 0.000000e+00
4.126377e-01 1.056676e+00 0.000000e+00
4.298307e-01 9.371480e-01 0.000000e+00
4.691852e-01 1.036394e+00 0.000000e+00
4.298307e-01 9.371480e-01 0.000000e+00
4.691852e-01 1.036394e+00 0.000000e+00
4.794908e-01 9.160174e-01 0.000000e+00
5.244371e-01 1.012752e+00 0.000000e+00
4.794908e-01 9.160174e-01 0.000000e+00
5.244371e-01 1.012752e+00 0.000000e+00
5.278580e-01 8.919680e-01 0.000000e+00
5.782106e-01 9.859120e-01 0.000000e+00
5.278580e-01 8.919680e-01 0.000000e+00
5.782106e-01 9.859120e-01 0.000000e+00
5.747947e-01 8.651340e-01 0.000000e+00
6.303452e-01 9.560240e-01 0.000000e+00
5.747947e-01 8.651340e-01 0.000000e+00
6.303452e-01 9.560240e-01 0.000000e+00
6.201675e-01 8.356443e-01 0.000000e+00
6.806941e-01 9.232323e-01 0.000000e+00
6.201675e-01 8.356443e-01 0.000000e+00
6.806941e-01 9.232323e-01 0.000000e+00
6.638484e-01 8.036253e-01 0.000000e+00
7.291211e-01 8.876773e-01 0.000000e+00
6.638484e-01 8.036253e-01 0.000000e+00
7.291211e-01 8.876773e-01 0.000000e+00
7.057147e-01 7.692024e-01 0.000000e+00
7.754978e-01 8.494971e-01 0.000000e+00
7.057147e-01 7.692024e-01 0.000000e+00
7.754978e-01 8.494971e-01 0.000000e+00
7.456499e-01 7.325015e-01 0.000000e+00
8.197028e-01 8.088297e-01 0.000000e+00
7.456499e-01 7.325015e-01 0.000000e+00
8.197028e-01 8.088297e-01 0.000000e+00
7.835436e-01 6.936494e-01 0.000000e+00
8.616211e-01 7.658137e-01 0.000000e+00
7.835436e-01 6.936494e-01 0.000000e+00
8.616211e-01 7.658137e-01 0.000000e+00
8.192913e-01 6.527747e-01 0.000000e+00
9.011437e-01 7.205892e-01 0.000000e+00
8.192913e-01 6.527747e-01 0.000000e+00
9.011437e-01 7.205892e-01 0.000000e+00
8.527954e-01 6.100079e-01 0.000000e+00
9.381680e-01 6.732986e-01 0.000000e+00
8.527954e-01 6.100079e-01 0.000000e+00
9.381680e-01 6.732986e-01 0.000000e+00
8.839642e-01 5.654822e-01 0.000000e+00
9.725980e-01 6.240865e-01 0.000000e+00
8.839642e-01 5.654822e-01 0.000000e+00
9.725980e-01 6.240865e-01 0.000000e+00
9.127130e-01 5.193329e-01 0.000000e+00
1.004344e+00 5.731006e-01 0.000000e+00
9.127130e-01 5.193329e-01 0.000000e+00
1.004344e+00 5.731006e-01 0.000000e+00
9.389638e-01 4.716980e-01 0.000000e+00
1.033323e+00 5.204911e-01 0.000000e+00
9.389638e-01 4.716980e-01 0.000000e+00
1.033323e+00 5.204911e-01 0.000000e+00
9.626455e-01 4.227180e-01 0.000000e+00
1.059460e+00 4.664111e-01 0.000000e+00
9.626455e-01 4.227180e-01 0.000000e+00
1.059460e+00 4.664111e-01 0.000000e+00
9.836939e-01 3.725356e-01 0.000000e+00
1.082686e+00 4.110165e-01 0.000000e+00
9.836939e-01 3.725356e-01 0.000000e+00
1.082686e+00 4.110165e-01 0.000000e+00
1.002052e+00 3.212959e-01 0.000000e+00
1.102940e+00 3.544657e-01 0.000000e+00
1.002052e+00 3.212959e-01 0.000000e+00
1.102940e+00 3.544657e-01 0.000000e+00
1.017671e+00 2.691460e-01 0.000000e+00
1.120169e+00 2.969192e-01 0.000000e+00
1.017671e+00 2.691460e-01 0.000000e+00
1.120169e+00 2.969192e-01 0.000000e+00
1.030507e+00 2.162346e-01 0.000000e+00
1.134328e+00 2.385397e-01 0.000000e+00
1.030507e+00 2.162346e-01 0.000000e+00
1.134328e+00 2.385397e-01 0.000000e+00
1.040528e+00 1.627123e-01 0.000000e+00
1.145379e+00 1.794916e-01 0.000000e+00
1.040528e+00 1.627123e-01 0.000000e+00
1.145379e+00 1.794916e-01 0.000000e+00
1.047704e+00 1.087306e-01 0.000000e+00
1.153294e+00 1.199409e-01 0.000000e+00
1.047704e+00 1.087306e-01 0.000000e+00
1.153294e+00 1.199409e-01 0.000000e+00
1.052018e+00 5.444206e-02 0.000000e+00
1.158051e+00 6.005449e-02 0.000000e+00
1.052018e+00 5.444206e-02 0.000000e+00
1.158051e+00 6.005449e-02 0.000000e+00
1.053457e+00 5.158350e-12 0.000000e+00
1.159638e+00 5.678270e-12 0.000000e+00
</DataArray>
</Points>
<Cells>
<DataArray type="Int32" Name="connectivity" format="ascii">
0 1 3 2
4 5 7 6
8 9 11 10
12 13 15 14
16 17 19 18
20 21 23 22
24 25 27 26
28 29 31 30
32 33 35 34
36 37 39 38
40 41 43 42
44 45 47 46
48 49 51 50
52 53 55 54
56 57 59 58
60 61 63 62
64 65 67 66
68 69 71 70
72 73 75 74
76 77 79 78
80 81 83 82
84 85 87 86
88 89 91 90
92 93 95 94
96 97 99 98
100 101 103 102
104 105 107 106
108 109 111 110
112 113 115 114
116 117 119 118
</DataArray>
<DataArray type="Int32" Name="offsets" format="ascii">
4
8
12
16
20
24
28
32
36
40
44
48
52
56
60
64
68
72
76
80
84
88
92
96
100
104
108
112
116
120
</DataArray>
<DataArray type="UInt8" Name="types" format="ascii">
9
9
9
9
9
9
9
9
9
9
9
9
9
9
9
9
9
9
9
9
9
9
9
9
9
9
9
9
9
9
</DataArray>
</Cells>
<PointData>
<DataArray type="Float32" Name="V1" format="ascii">
8.451895e+01
-5.684153e+00
8.523558e+01
-4.967520e+00
8.123134e+01
-2.439383e+00
8.292837e+01
-7.423584e-01
7.395679e+01
6.347151e+00
7.781200e+01
1.020237e+01
6.813002e+01
1.876132e+01
7.055800e+01
2.118930e+01
6.577334e+01
2.380597e+01
6.658337e+01
2.461601e+01
6.425560e+01
2.629625e+01
6.483720e+01
2.687785e+01
6.361936e+01
2.780540e+01
6.408874e+01
2.827478e+01
6.347304e+01
2.875205e+01
6.386087e+01
2.913989e+01
6.358665e+01
2.935441e+01
6.390997e+01
2.967773e+01
6.382963e+01
2.974156e+01
6.410062e+01
3.001254e+01
6.412805e+01
2.999243e+01
6.435612e+01
3.022050e+01
6.444040e+01
3.015617e+01
6.463307e+01
3.034884e+01
6.474411e+01
3.026379e+01
6.490742e+01
3.042710e+01
6.502761e+01
3.033504e+01
6.516643e+01
3.047386e+01
6.528572e+01
3.038258e+01
6.540403e+01
3.050089e+01
6.551694e+01
3.041459e+01
6.561796e+01
3.051561e+01
6.572174e+01
3.043638e+01
6.580811e+01
3.052275e+01
6.590166e+01
3.045141e+01
6.597554e+01
3.052529e+01
6.605869e+01
3.046195e+01
6.612185e+01
3.052511e+01
6.619494e+01
3.046949e+01
6.624886e+01
3.052341e+01
6.631249e+01
3.047502e+01
6.635837e+01
3.052090e+01
6.641324e+01
3.047920e+01
6.645207e+01
3.051804e+01
6.649890e+01
3.048248e+01
6.653151e+01
3.051509e+01
6.657097e+01
3.048514e+01
6.659803e+01
3.051220e+01
6.663072e+01
3.048740e+01
6.665279e+01
3.050946e+01
6.667924e+01
3.048939e+01
6.669673e+01
3.050689e+01
6.671738e+01
3.049123e+01
6.673065e+01
3.050450e+01
6.674584e+01
3.049299e+01
6.675514e+01
3.050229e+01
6.676512e+01
3.049473e+01
6.677063e+01
3.050024e+01
6.677558e+01
3.049649e+01
6.677741e+01
3.049831e+01
</DataArray>
<DataArray type="Float32" Name="V2" format="ascii">
9.939428e-01
1.100000e+00
9.955943e-01
1.101615e+00
9.955943e-01
1.101615e+00
1.000056e+00
1.106465e+00
1.000056e+00
1.106465e+00
1.007013e+00
1.114462e+00
1.007013e+00
1.114462e+00
1.013582e+00
1.121008e+00
1.013582e+00
1.121008e+00
1.019091e+00
1.126193e+00
1.019091e+00
1.126193e+00
1.023691e+00
1.130594e+00
1.023691e+00
1.130594e+00
1.027599e+00
1.134369e+00
1.027599e+00
1.134369e+00
1.030955e+00
1.137628e+00
1.030955e+00
1.137628e+00
1.033862e+00
1.140458e+00
1.033862e+00
1.140458e+00
1.036396e+00
1.142930e+00
1.036396e+00
1.142930e+00
1.038618e+00
1.145100e+00
1.038618e+00
1.145100e+00
1.040576e+00
1.147013e+00
1.040576e+00
1.147013e+00
1.042307e+00
1.148706e+00
1.042307e+00
1.148706e+00
1.043844e+00
1.150209e+00
1.043844e+00
1.150209e+00
1.045211e+00
1.151546e+00
1.045211e+00
1.151546e+00
1.046428e+00
1.152739e+00
1.046428e+00
1.152739e+00
1.047513e+00
1.153802e+00
1.047513e+00
1.153802e+00
1.048480e+00
1.154749e+00
1.048480e+00
1.154749e+00
1.049338e+00
1.155591e+00
1.049338e+00
1.155591e+00
1.050099e+00
1.156338e+00
1.050099e+00
1.156338e+00
1.050769e+00
1.156996e+00
1.050769e+00
1.156996e+00
1.051355e+00
1.157571e+00
1.051355e+00
1.157571e+00
1.051862e+00
1.158069e+00
1.051862e+00
1.158069e+00
1.052294e+00
1.158494e+00
1.052294e+00
1.158494e+00
1.052655e+00
1.158848e+00
1.052655e+00
1.158848e+00
1.052946e+00
1.159135e+00
1.052946e+00
1.159135e+00
1.053171e+00
1.159356e+00
1.053171e+00
1.159356e+00
1.053330e+00
1.159513e+00
1.053330e+00
1.159513e+00
1.053426e+00
1.159607e+00
1.053426e+00
1.159607e+00
1.053457e+00
1.159638e+00
</DataArray>
<DataArray type="Float32" Name="V3" format="ascii">
0.000000e+00
0.000000e+00
3.852812e-03
2.019429e-03
3.852812e-03
2.019429e-03
7.014754e-03
3.861477e-03
7.014754e-03
3.861477e-03
9.109376e-03
4.737318e-03
9.109376e-03
4.737318e-03
1.046065e-02
4.823187e-03
1.046065e-02
4.823187e-03
1.109715e-02
5.299603e-03
1.109715e-02
5.299603e-03
1.141136e-02
5.931633e-03
1.141136e-02
5.931633e-03
1.152461e-02
6.551479e-03
1.152461e-02
6.551479e-03
1.149744e-02
7.082637e-03
1.149744e-02
7.082637e-03
1.136623e-02
7.496972e-03
1.136623e-02
7.496972e-03
1.115441e-02
7.789105e-03
1.115441e-02
7.789105e-03
1.087763e-02
7.963955e-03
1.087763e-02
7.963955e-03
1.054668e-02
8.030748e-03
1.054668e-02
8.030748e-03
1.016931e-02
8.000113e-03
1.016931e-02
8.000113e-03
9.751335e-03
7.882680e-03
9.751335e-03
7.882680e-03
9.297325e-03
7.688445e-03
9.297325e-03
7.688445e-03
8.811005e-03
7.426517e-03
8.811005e-03
7.426517e-03
8.295547e-03
7.105062e-03
8.295547e-03
7.105062e-03
7.753746e-03
6.731356e-03
7.753746e-03
6.731356e-03
7.188128e-03
6.311865e-03
7.188128e-03
6.311865e-03
6.601033e-03
5.852352e-03
6.601033e-03
5.852352e-03
5.994664e-03
5.357979e-03
5.994664e-03
5.357979e-03
5.371125e-03
4.833402e-03
5.371125e-03
4.833402e-03
4.732448e-03
4.282858e-03
4.732448e-03
4.282858e-03
4.080610e-03
3.710239e-03
4.080610e-03
3.710239e-03
3.417548e-03
3.119154e-03
3.417548e-03
3.119154e-03
2.745170e-03
2.512992e-03
2.745170e-03
2.512992e-03
2.065361e-03
1.894962e-03
2.065361e-03
1.894962e-03
1.379991e-03
1.268143e-03
1.379991e-03
1.268143e-03
6.909203e-04
6.355160e-04
6.909203e-04
6.355160e-04
0.000000e+00
0.000000e+00
</DataArray>
<DataArray type="Float32" Name="V4" format="ascii">
8.500000e-01
1.000000e+00
8.500000e-01
1.000000e+00
8.500000e-01
1.000000e+00
8.500000e-01
1.000000e+00
8.500000e-01
1.000000e+00
8.500000e-01
1.000000e+00
8.500000e-01
1.000000e+00
8.500000e-01
1.000000e+00
8.500000e-01
1.000000e+00
8.500000e-01
1.000000e+00
8.500000e-01
1.000000e+00
8.500000e-01
1.000000e+00
8.500000e-01
1.000000e+00
8.500000e-01
1.000000e+00
8.500000e-01
1.000000e+00
8.500000e-01
1.000000e+00
8.500000e-01
1.000000e+00
8.500000e-01
1.000000e+00
8.500000e-01
1.000000e+00
8.500000e-01
1.000000e+00
8.500000e-01
1.000000e+00
8.500000e-01
1.000000e+00
8.500000e-01
1.000000e+00
8.500000e-01
1.000000e+00
8.500000e-01
1.000000e+00
8.500000e-01
1.000000e+00
8.500000e-01
1.000000e+00
8.500000e-01
1.000000e+00
8.500000e-01
1.000000e+00
8.500000e-01
1.000000e+00
8.500000e-01
1.000000e+00
8.500000e-01
1.000000e+00
8.500000e-01
1.000000e+00
8.500000e-01
1.000000e+00
8.500000e-01
1.000000e+00
8.500000e-01
1.000000e+00
8.500000e-01
1.000000e+00
8.500000e-01
1.000000e+00
8.500000e-01
1.000000e+00
8.500000e-01
1.000000e+00
8.500000e-01
1.000000e+00
8.500000e-01
1.000000e+00
8.500000e-01
1.000000e+00
8.500000e-01
1.000000e+00
8.500000e-01
1.000000e+00
8.500000e-01
1.000000e+00
8.500000e-01
1.000000e+00
8.500000e-01
1.000000e+00
8.500000e-01
1.000000e+00
8.500000e-01
1.000000e+00
8.500000e-01
1.000000e+00
8.500000e-01
1.000000e+00
8.500000e-01
1.000000e+00
8.500000e-01
1.000000e+00
8.500000e-01
1.000000e+00
8.500000e-01
1.000000e+00
8.500000e-01
1.000000e+00
8.500000e-01
1.000000e+00
8.500000e-01
1.000000e+00
8.500000e-01
1.000000e+00
</DataArray>
<DataArray type="Float32" Name="V5" format="ascii">
0.000000e+00
0.000000e+00
5.235988e-02
5.235988e-02
5.235988e-02
5.235988e-02
1.047198e-01
1.047198e-01
1.047198e-01
1.047198e-01
1.570796e-01
1.570796e-01
1.570796e-01
1.570796e-01
2.094395e-01
2.094395e-01
2.094395e-01
2.094395e-01
2.617994e-01
2.617994e-01
2.617994e-01
2.617994e-01
3.141593e-01
3.141593e-01
3.141593e-01
3.141593e-01
3.665191e-01
3.665191e-01
3.665191e-01
3.665191e-01
4.188790e-01
4.188790e-01
4.188790e-01
4.188790e-01
4.712389e-01
4.712389e-01
4.712389e-01
4.712389e-01
5.235988e-01
5.235988e-01
5.235988e-01
5.235988e-01
5.759587e-01
5.759587e-01
5.759587e-01
5.759587e-01
6.283185e-01
6.283185e-01
6.283185e-01
6.283185e-01
6.806784e-01
6.806784e-01
6.806784e-01
6.806784e-01
7.330383e-01
7.330383e-01
7.330383e-01
7.330383e-01
7.853982e-01
7.853982e-01
7.853982e-01
7.853982e-01
8.377580e-01
8.377580e-01
8.377580e-01
8.377580e-01
8.901179e-01
8.901179e-01
8.901179e-01
8.901179e-01
9.424778e-01
9.424778e-01
9.424778e-01
9.424778e-01
9.948377e-01
9.948377e-01
9.948377e-01
9.948377e-01
1.047198e+00
1.047198e+00
1.047198e+00
1.047198e+00
1.099557e+00
1.099557e+00
1.099557e+00
1.099557e+00
1.151917e+00
1.151917e+00
1.151917e+00
1.151917e+00
1.204277e+00
1.204277e+00
1.204277e+00
1.204277e+00
1.256637e+00
1.256637e+00
1.256637e+00
1.256637e+00
1.308997e+00
1.308997e+00
1.308997e+00
1.308997e+00
1.361357e+00
1.361357e+00
1.361357e+00
1.361357e+00
1.413717e+00
1.413717e+00
1.413717e+00
1.413717e+00
1.466077e+00
1.466077e+00
1.466077e+00
1.466077e+00
1.518436e+00
1.518436e+00
1.518436e+00
1.518436e+00
1.570796e+00
1.570796e+00
</DataArray>
</PointData>
</Piece></UnstructuredGrid>
</VTKFile>
