<?xml version="1.0"?>
<VTKFile type="UnstructuredGrid" version="0.1" byte_order="LittleEndian" compressor="vtkZLibDataCompressor">
<UnstructuredGrid>
<Piece NumberOfPoints="120" NumberOfCells="30">
<Points>
<DataArray type="Float32" NumberOfComponents="3" format="ascii">
0.000000e+00 6.820478e-01 0.000000e+00
0.000000e+00 7.800000e-01 0.000000e+00
6.000548e-02 6.820924e-01 0.000000e+00
6.002185e-02 7.800000e-01 0.000000e+00
6.000548e-02 6.820924e-01 0.000000e+00
6.002185e-02 7.800000e-01 0.000000e+00
1.199955e-01 6.821840e-01 0.000000e+00
1.200350e-01 7.800000e-01 0.000000e+00
1.199955e-01 6.821840e-01 0.000000e+00
1.200350e-01 7.800000e-01 0.000000e+00
1.799514e-01 6.823378e-01 0.000000e+00
1.800339e-01 7.800000e-01 0.000000e+00
1.799514e-01 6.823378e-01 0.000000e+00
1.800339e-01 7.800000e-01 0.000000e+00
2.398542e-01 6.825551e-01 0.000000e+00
2.400159e-01 7.800000e-01 0.000000e+00
2.398542e-01 6.825551e-01 0.000000e+00
2.400159e-01 7.800000e-01 0.000000e+00
2.996812e-01 6.828387e-01 0.000000e+00
2.999865e-01 7.800000e-01 0.000000e+00
2.996812e-01 6.828387e-01 0.000000e+00
2.999865e-01 7.800000e-01 0.000000e+00
3.594026e-01 6.831931e-01 0.000000e+00
3.599647e-01 7.800000e-01 0.000000e+00
3.594026e-01 6.831931e-01 0.000000e+00
3.599647e-01 7.800000e-01 0.000000e+00
4.189763e-01 6.836252e-01 0.000000e+00
4.199923e-01 7.800000e-01 0.000000e+00
4.189763e-01 6.836252e-01 0.000000e+00
4.199923e-01 7.800000e-01 0.000000e+00
4.783359e-01 6.841440e-01 0.000000e+00
4.801480e-01 7.800000e-01 0.000000e+00
4.783359e-01 6.841440e-01 0.000000e+00
4.801480e-01 7.800000e-01 0.000000e+00
5.373686e-01 6.847557e-01 0.000000e+00
5.405639e-01 7.800000e-01 0.000000e+00
5.373686e-01 6.847557e-01 0.000000e+00
5.405639e-01 7.800000e-01 0.000000e+00
5.958722e-01 6.854442e-01 0.000000e+00
6.014363e-01 7.800000e-01 0.000000e+00
5.958722e-01 6.854442e-01 0.000000e+00
6.014363e-01 7.800000e-01 0.000000e+00
6.534786e-01 6.860825e-01 0.000000e+00
6.629929e-01 7.800000e-01 0.000000e+00
6.534786e-01 6.860825e-01 0.000000e+00
6.629929e-01 7.800000e-01 0.000000e+00
7.096783e-01 6.862802e-01 0.000000e+00
7.251387e-01 7.800000e-01 0.000000e+00
7.096783e-01 6.862802e-01 0.000000e+00
7.251387e-01 7.800000e-01 0.000000e+00
7.647363e-01 6.841439e-01 0.000000e+00
7.857225e-01 7.770155e-01 0.000000e+00
7.647363e-01 6.841439e-01 0.000000e+00
7.857225e-01 7.770155e-01 0.000000e+00
8.175974e-01 6.746249e-01 0.000000e+00
8.456721e-01 7.645454e-01 0.000000e+00
8.175974e-01 6.746249e-01 0.000000e+00
8.456721e-01 7.645454e-01 0.000000e+00
8.683005e-01 6.588708e-01 0.000000e+00
9.043157e-01 7.450339e-01 0.000000e+00
8.683005e-01 6.588708e-01 0.000000e+00
9.043157e-01 7.450339e-01 0.000000e+00
9.166144e-01 6.372121e-01 0.000000e+00
9.604778e-01 7.188905e-01 0.000000e+00
9.166144e-01 6.372121e-01 0.000000e+00
9.604778e-01 7.188905e-01 0.000000e+00
9.623087e-01 6.103598e-01 0.000000e+00
1.013480e+00 6.869585e-01 0.000000e+00
9.623087e-01 6.103598e-01 0.000000e+00
1.013480e+00 6.869585e-01 0.000000e+00
1.005166e+00 5.788894e-01 0.000000e+00
1.062908e+00 6.499936e-01 0.000000e+00
1.005166e+00 5.788894e-01 0.000000e+00
1.062908e+00 6.499936e-01 0.000000e+00
1.045014e+00 5.433481e-01 0.000000e+00
1.108541e+00 6.086949e-01 0.000000e+00
1.045014e+00 5.433481e-01 0.000000e+00
1.108541e+00 6.086949e-01 0.000000e+00
1.081714e+00 5.042309e-01 0.000000e+00
1.150267e+00 5.636715e-01 0.000000e+00
1.081714e+00 5.042309e-01 0.000000e+00
1.150267e+00 5.636715e-01 0.000000e+00
1.115156e+00 4.619894e-01 0.000000e+00
1.188033e+00 5.154517e-01 0.000000e+00
1.115156e+00 4.619894e-01 0.000000e+00
1.188033e+00 5.154517e-01 0.000000e+00
1.145253e+00 4.170351e-01 0.000000e+00
1.221819e+00 4.644952e-01 0.000000e+00
1.145253e+00 4.170351e-01 0.000000e+00
1.221819e+00 4.644952e-01 0.000000e+00
1.171938e+00 3.697447e-01 0.000000e+00
1.251622e+00 4.112061e-01 0.000000e+00
1.171938e+00 3.697447e-01 0.000000e+00
1.251622e+00 4.112061e-01 0.000000e+00
1.195157e+00 3.204655e-01 0.000000e+00
1.277443e+00 3.559457e-01 0.000000e+00
1.195157e+00 3.204655e-01 0.000000e+00
1.277443e+00 3.559457e-01 0.000000e+00
1.214868e+00 2.695208e-01 0.000000e+00
1.299286e+00 2.990425e-01 0.000000e+00
1.214868e+00 2.695208e-01 0.000000e+00
1.299286e+00 2.990425e-01 0.000000e+00
1.231037e+00 2.172145e-01 0.000000e+00
1.317154e+00 2.408008e-01 0.000000e+00
1.231037e+00 2.172145e-01 0.000000e+00
1.317154e+00 2.408008e-01 0.000000e+00
1.243638e+00 1.638356e-01 0.000000e+00
1.331050e+00 1.815066e-01 0.000000e+00
1.243638e+00 1.638356e-01 0.000000e+00
1.331050e+00 1.815066e-01 0.000000e+00
1.252652e+00 1.096615e-01 0.000000e+00
1.340975e+00 1.214331e-01 0.000000e+00
1.252652e+00 1.096615e-01 0.000000e+00
1.340975e+00 1.214331e-01 0.000000e+00
1.258066e+00 5.496156e-02 0.000000e+00
1.346930e+00 6.084461e-02 0.000000e+00
1.258066e+00 5.496156e-02 0.000000e+00
1.346930e+00 6.084461e-02 0.000000e+00
1.259871e+00 6.169070e-12 0.000000e+00
1.348914e+00 6.605080e-12 0.000000e+00
</DataArray>
</Points>
<Cells>
<DataArray type="Int32" Name="connectivity" format="ascii">
0 1 3 2
4 5 7 6
8 9 11 10
12 13 15 14
16 17 19 18
20 21 23 22
24 25 27 26
28 29 31 30
32 33 35 34
36 37 39 38
40 41 43 42
44 45 47 46
48 49 51 50
52 53 55 54
56 57 59 58
60 61 63 62
64 65 67 66
68 69 71 70
72 73 75 74
76 77 79 78
80 81 83 82
84 85 87 86
88 89 91 90
92 93 95 94
96 97 99 98
100 101 103 102
104 105 107 106
108 109 111 110
112 113 115 114
116 117 119 118
</DataArray>
<DataArray type="Int32" Name="offsets" format="ascii">
4
8
12
16
20
24
28
32
36
40
44
48
52
56
60
64
68
72
76
80
84
88
92
96
100
104
108
112
116
120
</DataArray>
<DataArray type="UInt8" Name="types" format="ascii">
9
9
9
9
9
9
9
9
9
9
9
9
9
9
9
9
9
9
9
9
9
9
9
9
9
9
9
9
9
9
</DataArray>
</Cells>
<PointData>
<DataArray type="Float32" Name="V1" format="ascii">
1.607264e+02
-3.443257e+01
1.608971e+02
-3.426192e+01
1.611369e+02
-3.441235e+01
1.616053e+02
-3.394394e+01
1.620834e+02
-3.425139e+01
1.628844e+02
-3.345032e+01
1.635611e+02
-3.389878e+01
1.647086e+02
-3.275126e+01
1.655307e+02
-3.330814e+01
1.670475e+02
-3.179138e+01
1.679124e+02
-3.239403e+01
1.698340e+02
-3.047245e+01
1.705489e+02
-3.100176e+01
1.729299e+02
-2.862079e+01
1.731393e+02
-2.884940e+01
1.760630e+02
-2.592572e+01
1.751213e+02
-2.541550e+01
1.787140e+02
-2.182281e+01
1.754728e+02
-1.971694e+01
1.799309e+02
-1.525885e+01
1.723921e+02
-9.890812e+00
1.781681e+02
-4.114767e+00
1.626760e+02
8.224196e+00
1.712965e+02
1.684467e+01
1.448078e+02
4.348240e+01
1.571934e+02
5.586803e+01
1.404852e+02
6.525473e+01
1.467581e+02
7.152770e+01
1.403626e+02
7.649508e+01
1.462105e+02
8.234293e+01
1.440612e+02
8.419616e+01
1.496991e+02
8.983409e+01
1.500477e+02
8.960972e+01
1.553628e+02
9.492478e+01
1.570123e+02
9.356315e+01
1.618838e+02
9.843466e+01
1.641767e+02
9.652496e+01
1.685473e+02
1.008956e+02
1.710705e+02
9.880620e+01
1.749272e+02
1.026629e+02
1.774371e+02
1.006059e+02
1.807955e+02
1.039642e+02
1.831510e+02
1.020552e+02
1.860405e+02
1.049446e+02
1.881658e+02
1.032403e+02
1.906207e+02
1.056952e+02
1.924794e+02
1.042185e+02
1.945340e+02
1.062731e+02
1.961132e+02
1.050284e+02
1.977985e+02
1.067137e+02
1.990980e+02
1.056960e+02
2.004406e+02
1.070387e+02
2.014664e+02
1.062395e+02
2.024883e+02
1.072614e+02
2.032484e+02
1.066715e+02
2.039664e+02
1.073895e+02
2.044683e+02
1.070010e+02
2.048944e+02
1.074271e+02
2.051438e+02
1.072343e+02
2.052851e+02
1.073755e+02
</DataArray>
<DataArray type="Float32" Name="V2" format="ascii">
6.820478e-01
7.800000e-01
6.842980e-01
7.820723e-01
6.842980e-01
7.820723e-01
6.909898e-01
7.882741e-01
6.909898e-01
7.882741e-01
7.020876e-01
7.985604e-01
7.020876e-01
7.985604e-01
7.175081e-01
8.128572e-01
7.175081e-01
8.128572e-01
7.371347e-01
8.310644e-01
7.371347e-01
8.310644e-01
7.608168e-01
8.530593e-01
7.608168e-01
8.530593e-01
7.883668e-01
8.787045e-01
7.883668e-01
8.787045e-01
8.195534e-01
9.078593e-01
8.195534e-01
9.078593e-01
8.540821e-01
9.403960e-01
8.540821e-01
9.403960e-01
8.915482e-01
9.762180e-01
8.915482e-01
9.762180e-01
9.313071e-01
1.015255e+00
9.313071e-01
1.015255e+00
9.723508e-01
1.057259e+00
9.723508e-01
1.057259e+00
1.012944e+00
1.098326e+00
1.012944e+00
1.098326e+00
1.048423e+00
1.134033e+00
1.048423e+00
1.134033e+00
1.079873e+00
1.166266e+00
1.079873e+00
1.166266e+00
1.107555e+00
1.194806e+00
1.107555e+00
1.194806e+00
1.131966e+00
1.219939e+00
1.131966e+00
1.219939e+00
1.153459e+00
1.241967e+00
1.153459e+00
1.241967e+00
1.172351e+00
1.261220e+00
1.172351e+00
1.261220e+00
1.188907e+00
1.277996e+00
1.188907e+00
1.277996e+00
1.203350e+00
1.292555e+00
1.203350e+00
1.292555e+00
1.215865e+00
1.305115e+00
1.215865e+00
1.305115e+00
1.226603e+00
1.315853e+00
1.226603e+00
1.315853e+00
1.235691e+00
1.324914e+00
1.235691e+00
1.324914e+00
1.243229e+00
1.332412e+00
1.243229e+00
1.332412e+00
1.249297e+00
1.338436e+00
1.249297e+00
1.338436e+00
1.253956e+00
1.343056e+00
1.253956e+00
1.343056e+00
1.257252e+00
1.346322e+00
1.257252e+00
1.346322e+00
1.259218e+00
1.348268e+00
1.259218e+00
1.348268e+00
1.259871e+00
1.348914e+00
</DataArray>
<DataArray type="Float32" Name="V3" format="ascii">
0.000000e+00
0.000000e+00
2.422528e-02
1.911755e-02
2.422528e-02
1.911755e-02
4.803047e-02
3.784519e-02
4.803047e-02
3.784519e-02
7.099473e-02
5.579846e-02
7.099473e-02
5.579846e-02
9.270165e-02
7.259987e-02
9.270165e-02
7.259987e-02
1.127381e-01
8.788587e-02
1.127381e-01
8.788587e-02
1.306939e-01
1.013135e-01
1.306939e-01
1.013135e-01
1.461587e-01
1.125696e-01
1.461587e-01
1.125696e-01
1.587151e-01
1.213825e-01
1.587151e-01
1.213825e-01
1.679264e-01
1.275333e-01
1.679264e-01
1.275333e-01
1.733184e-01
1.308591e-01
1.733184e-01
1.308591e-01
1.743860e-01
1.312142e-01
1.743860e-01
1.312142e-01
1.707564e-01
1.281770e-01
1.707564e-01
1.281770e-01
1.637660e-01
1.216293e-01
1.637660e-01
1.216293e-01
1.561811e-01
1.168761e-01
1.561811e-01
1.168761e-01
1.480891e-01
1.126292e-01
1.480891e-01
1.126292e-01
1.397939e-01
1.084454e-01
1.397939e-01
1.084454e-01
1.312618e-01
1.039368e-01
1.312618e-01
1.039368e-01
1.224903e-01
9.890576e-02
1.224903e-01
9.890576e-02
1.134655e-01
9.326032e-02
1.134655e-01
9.326032e-02
1.041804e-01
8.697959e-02
1.041804e-01
8.697959e-02
9.463471e-02
8.008476e-02
9.463471e-02
8.008476e-02
8.483601e-02
7.262127e-02
8.483601e-02
7.262127e-02
7.479875e-02
6.464734e-02
7.479875e-02
6.464734e-02
6.454312e-02
5.622719e-02
6.454312e-02
5.622719e-02
5.409382e-02
4.742702e-02
5.409382e-02
4.742702e-02
4.347900e-02
3.831298e-02
4.347900e-02
3.831298e-02
3.272927e-02
2.895013e-02
3.272927e-02
2.895013e-02
2.187703e-02
1.940218e-02
2.187703e-02
1.940218e-02
1.095584e-02
9.731624e-03
1.095584e-02
9.731624e-03
0.000000e+00
0.000000e+00
</DataArray>
<DataArray type="Float32" Name="V4" format="ascii">
8.500000e-01
1.000000e+00
8.500000e-01
1.000000e+00
8.500000e-01
1.000000e+00
8.500000e-01
1.000000e+00
8.500000e-01
1.000000e+00
8.500000e-01
1.000000e+00
8.500000e-01
1.000000e+00
8.500000e-01
1.000000e+00
8.500000e-01
1.000000e+00
8.500000e-01
1.000000e+00
8.500000e-01
1.000000e+00
8.500000e-01
1.000000e+00
8.500000e-01
1.000000e+00
8.500000e-01
1.000000e+00
8.500000e-01
1.000000e+00
8.500000e-01
1.000000e+00
8.500000e-01
1.000000e+00
8.500000e-01
1.000000e+00
8.500000e-01
1.000000e+00
8.500000e-01
1.000000e+00
8.500000e-01
1.000000e+00
8.500000e-01
1.000000e+00
8.500000e-01
1.000000e+00
8.500000e-01
1.000000e+00
8.500000e-01
1.000000e+00
8.500000e-01
1.000000e+00
8.500000e-01
1.000000e+00
8.500000e-01
1.000000e+00
8.500000e-01
1.000000e+00
8.500000e-01
1.000000e+00
8.500000e-01
1.000000e+00
8.500000e-01
1.000000e+00
8.500000e-01
1.000000e+00
8.500000e-01
1.000000e+00
8.500000e-01
1.000000e+00
8.500000e-01
1.000000e+00
8.500000e-01
1.000000e+00
8.500000e-01
1.000000e+00
8.500000e-01
1.000000e+00
8.500000e-01
1.000000e+00
8.500000e-01
1.000000e+00
8.500000e-01
1.000000e+00
8.500000e-01
1.000000e+00
8.500000e-01
1.000000e+00
8.500000e-01
1.000000e+00
8.500000e-01
1.000000e+00
8.500000e-01
1.000000e+00
8.500000e-01
1.000000e+00
8.500000e-01
1.000000e+00
8.500000e-01
1.000000e+00
8.500000e-01
1.000000e+00
8.500000e-01
1.000000e+00
8.500000e-01
1.000000e+00
8.500000e-01
1.000000e+00
8.500000e-01
1.000000e+00
8.500000e-01
1.000000e+00
8.500000e-01
1.000000e+00
8.500000e-01
1.000000e+00
8.500000e-01
1.000000e+00
8.500000e-01
1.000000e+00
</DataArray>
<DataArray type="Float32" Name="V5" format="ascii">
0.000000e+00
0.000000e+00
5.235988e-02
5.235988e-02
5.235988e-02
5.235988e-02
1.047198e-01
1.047198e-01
1.047198e-01
1.047198e-01
1.570796e-01
1.570796e-01
1.570796e-01
1.570796e-01
2.094395e-01
2.094395e-01
2.094395e-01
2.094395e-01
2.617994e-01
2.617994e-01
2.617994e-01
2.617994e-01
3.141593e-01
3.141593e-01
3.141593e-01
3.141593e-01
3.665191e-01
3.665191e-01
3.665191e-01
3.665191e-01
4.188790e-01
4.188790e-01
4.188790e-01
4.188790e-01
4.712389e-01
4.712389e-01
4.712389e-01
4.712389e-01
5.235988e-01
5.235988e-01
5.235988e-01
5.235988e-01
5.759587e-01
5.759587e-01
5.759587e-01
5.759587e-01
6.283185e-01
6.283185e-01
6.283185e-01
6.283185e-01
6.806784e-01
6.806784e-01
6.806784e-01
6.806784e-01
7.330383e-01
7.330383e-01
7.330383e-01
7.330383e-01
7.853982e-01
7.853982e-01
7.853982e-01
7.853982e-01
8.377580e-01
8.377580e-01
8.377580e-01
8.377580e-01
8.901179e-01
8.901179e-01
8.901179e-01
8.901179e-01
9.424778e-01
9.424778e-01
9.424778e-01
9.424778e-01
9.948377e-01
9.948377e-01
9.948377e-01
9.948377e-01
1.047198e+00
1.047198e+00
1.047198e+00
1.047198e+00
1.099557e+00
1.099557e+00
1.099557e+00
1.099557e+00
1.151917e+00
1.151917e+00
1.151917e+00
1.151917e+00
1.204277e+00
1.204277e+00
1.204277e+00
1.204277e+00
1.256637e+00
1.256637e+00
1.256637e+00
1.256637e+00
1.308997e+00
1.308997e+00
1.308997e+00
1.308997e+00
1.361357e+00
1.361357e+00
1.361357e+00
1.361357e+00
1.413717e+00
1.413717e+00
1.413717e+00
1.413717e+00
1.466077e+00
1.466077e+00
1.466077e+00
1.466077e+00
1.518436e+00
1.518436e+00
1.518436e+00
1.518436e+00
1.570796e+00
1.570796e+00
</DataArray>
</PointData>
</Piece></UnstructuredGrid>
</VTKFile>
