<?xml version="1.0"?>
<VTKFile type="UnstructuredGrid" version="0.1" byte_order="LittleEndian" compressor="vtkZLibDataCompressor">
<UnstructuredGrid>
<Piece NumberOfPoints="120" NumberOfCells="30">
<Points>
<DataArray type="Float32" NumberOfComponents="3" format="ascii">
0.000000e+00 7.761582e-01 0.000000e+00
0.000000e+00 8.800000e-01 0.000000e+00
5.823928e-02 7.762111e-01 0.000000e+00
5.836412e-02 8.800000e-01 0.000000e+00
5.823928e-02 7.762111e-01 0.000000e+00
5.836412e-02 8.800000e-01 0.000000e+00
1.164536e-01 7.763234e-01 0.000000e+00
1.167441e-01 8.800000e-01 0.000000e+00
1.164536e-01 7.763234e-01 0.000000e+00
1.167441e-01 8.800000e-01 0.000000e+00
1.746117e-01 7.765160e-01 0.000000e+00
1.751667e-01 8.800000e-01 0.000000e+00
1.746117e-01 7.765160e-01 0.000000e+00
1.751667e-01 8.800000e-01 0.000000e+00
2.326741e-01 7.767966e-01 0.000000e+00
2.336748e-01 8.800000e-01 0.000000e+00
2.326741e-01 7.767966e-01 0.000000e+00
2.336748e-01 8.800000e-01 0.000000e+00
2.905815e-01 7.771751e-01 0.000000e+00
2.923416e-01 8.800000e-01 0.000000e+00
2.905815e-01 7.771751e-01 0.000000e+00
2.923416e-01 8.800000e-01 0.000000e+00
3.482368e-01 7.776584e-01 0.000000e+00
3.512814e-01 8.800000e-01 0.000000e+00
3.482368e-01 7.776584e-01 0.000000e+00
3.512814e-01 8.800000e-01 0.000000e+00
4.054725e-01 7.782309e-01 0.000000e+00
4.106531e-01 8.800000e-01 0.000000e+00
4.054725e-01 7.782309e-01 0.000000e+00
4.106531e-01 8.800000e-01 0.000000e+00
4.620003e-01 7.787837e-01 0.000000e+00
4.706274e-01 8.800000e-01 0.000000e+00
4.620003e-01 7.787837e-01 0.000000e+00
4.706274e-01 8.800000e-01 0.000000e+00
5.174200e-01 7.789554e-01 0.000000e+00
5.311695e-01 8.800000e-01 0.000000e+00
5.174200e-01 7.789554e-01 0.000000e+00
5.311695e-01 8.800000e-01 0.000000e+00
5.718034e-01 7.776363e-01 0.000000e+00
5.909098e-01 8.783444e-01 0.000000e+00
5.718034e-01 7.776363e-01 0.000000e+00
5.909098e-01 8.783444e-01 0.000000e+00
6.246502e-01 7.708005e-01 0.000000e+00
6.500400e-01 8.693153e-01 0.000000e+00
6.246502e-01 7.708005e-01 0.000000e+00
6.500400e-01 8.693153e-01 0.000000e+00
6.757551e-01 7.584902e-01 0.000000e+00
7.085236e-01 8.540293e-01 0.000000e+00
6.757551e-01 7.584902e-01 0.000000e+00
7.085236e-01 8.540293e-01 0.000000e+00
7.250643e-01 7.408920e-01 0.000000e+00
7.654341e-01 8.328404e-01 0.000000e+00
7.250643e-01 7.408920e-01 0.000000e+00
7.654341e-01 8.328404e-01 0.000000e+00
7.724038e-01 7.185482e-01 0.000000e+00
8.201160e-01 8.063498e-01 0.000000e+00
7.724038e-01 7.185482e-01 0.000000e+00
8.201160e-01 8.063498e-01 0.000000e+00
8.175871e-01 6.919009e-01 0.000000e+00
8.721389e-01 7.751151e-01 0.000000e+00
8.175871e-01 6.919009e-01 0.000000e+00
8.721389e-01 7.751151e-01 0.000000e+00
8.604512e-01 6.613738e-01 0.000000e+00
9.212434e-01 7.396736e-01 0.000000e+00
8.604512e-01 6.613738e-01 0.000000e+00
9.212434e-01 7.396736e-01 0.000000e+00
9.008524e-01 6.273534e-01 0.000000e+00
9.672677e-01 7.005055e-01 0.000000e+00
9.008524e-01 6.273534e-01 0.000000e+00
9.672677e-01 7.005055e-01 0.000000e+00
9.386672e-01 5.901952e-01 0.000000e+00
1.010109e+00 6.580363e-01 0.000000e+00
9.386672e-01 5.901952e-01 0.000000e+00
1.010109e+00 6.580363e-01 0.000000e+00
9.737894e-01 5.502263e-01 0.000000e+00
1.049699e+00 6.126422e-01 0.000000e+00
9.737894e-01 5.502263e-01 0.000000e+00
1.049699e+00 6.126422e-01 0.000000e+00
1.006127e+00 5.077486e-01 0.000000e+00
1.085987e+00 5.646582e-01 0.000000e+00
1.006127e+00 5.077486e-01 0.000000e+00
1.085987e+00 5.646582e-01 0.000000e+00
1.035602e+00 4.630425e-01 0.000000e+00
1.118935e+00 5.143864e-01 0.000000e+00
1.035602e+00 4.630425e-01 0.000000e+00
1.118935e+00 5.143864e-01 0.000000e+00
1.062146e+00 4.163705e-01 0.000000e+00
1.148508e+00 4.621038e-01 0.000000e+00
1.062146e+00 4.163705e-01 0.000000e+00
1.148508e+00 4.621038e-01 0.000000e+00
1.085700e+00 3.679804e-01 0.000000e+00
1.174677e+00 4.080676e-01 0.000000e+00
1.085700e+00 3.679804e-01 0.000000e+00
1.174677e+00 4.080676e-01 0.000000e+00
1.106213e+00 3.181081e-01 0.000000e+00
1.197417e+00 3.525201e-01 0.000000e+00
1.106213e+00 3.181081e-01 0.000000e+00
1.197417e+00 3.525201e-01 0.000000e+00
1.123641e+00 2.669799e-01 0.000000e+00
1.216702e+00 2.956929e-01 0.000000e+00
1.123641e+00 2.669799e-01 0.000000e+00
1.216702e+00 2.956929e-01 0.000000e+00
1.137950e+00 2.148150e-01 0.000000e+00
1.232511e+00 2.378092e-01 0.000000e+00
1.137950e+00 2.148150e-01 0.000000e+00
1.232511e+00 2.378092e-01 0.000000e+00
1.149109e+00 1.618266e-01 0.000000e+00
1.244827e+00 1.790864e-01 0.000000e+00
1.149109e+00 1.618266e-01 0.000000e+00
1.244827e+00 1.790864e-01 0.000000e+00
1.157096e+00 1.082242e-01 0.000000e+00
1.253635e+00 1.197374e-01 0.000000e+00
1.157096e+00 1.082242e-01 0.000000e+00
1.253635e+00 1.197374e-01 0.000000e+00
1.161895e+00 5.421382e-02 0.000000e+00
1.258924e+00 5.997245e-02 0.000000e+00
1.161895e+00 5.421382e-02 0.000000e+00
1.258924e+00 5.997245e-02 0.000000e+00
1.163495e+00 5.697160e-12 0.000000e+00
1.260688e+00 6.173070e-12 0.000000e+00
</DataArray>
</Points>
<Cells>
<DataArray type="Int32" Name="connectivity" format="ascii">
0 1 3 2
4 5 7 6
8 9 11 10
12 13 15 14
16 17 19 18
20 21 23 22
24 25 27 26
28 29 31 30
32 33 35 34
36 37 39 38
40 41 43 42
44 45 47 46
48 49 51 50
52 53 55 54
56 57 59 58
60 61 63 62
64 65 67 66
68 69 71 70
72 73 75 74
76 77 79 78
80 81 83 82
84 85 87 86
88 89 91 90
92 93 95 94
96 97 99 98
100 101 103 102
104 105 107 106
108 109 111 110
112 113 115 114
116 117 119 118
</DataArray>
<DataArray type="Int32" Name="offsets" format="ascii">
4
8
12
16
20
24
28
32
36
40
44
48
52
56
60
64
68
72
76
80
84
88
92
96
100
104
108
112
116
120
</DataArray>
<DataArray type="UInt8" Name="types" format="ascii">
9
9
9
9
9
9
9
9
9
9
9
9
9
9
9
9
9
9
9
9
9
9
9
9
9
9
9
9
9
9
</DataArray>
</Cells>
<PointData>
<DataArray type="Float32" Name="V1" format="ascii">
1.215622e+02
-2.891689e+01
1.216988e+02
-2.878024e+01
1.217558e+02
-2.882519e+01
1.221115e+02
-2.846950e+01
1.221884e+02
-2.853042e+01
1.228016e+02
-2.791719e+01
1.227619e+02
-2.791991e+01
1.236591e+02
-2.702268e+01
1.232663e+02
-2.681814e+01
1.244927e+02
-2.559179e+01
1.233242e+02
-2.489740e+01
1.249540e+02
-2.326761e+01
1.222796e+02
-2.154993e+01
1.244392e+02
-1.939032e+01
1.190301e+02
-1.565153e+01
1.220217e+02
-1.265996e+01
1.117631e+02
-4.900989e+00
1.165763e+02
-8.780177e-02
9.911939e+01
1.610189e+01
1.066435e+02
2.362600e+01
9.271586e+01
3.364559e+01
9.681597e+01
3.774571e+01
9.020609e+01
4.225602e+01
9.325154e+01
4.530147e+01
9.027595e+01
4.769981e+01
9.311546e+01
5.053933e+01
9.218991e+01
5.134799e+01
9.484711e+01
5.400519e+01
9.505487e+01
5.385683e+01
9.748505e+01
5.628701e+01
9.832147e+01
5.560394e+01
1.004998e+02
5.778231e+01
1.016463e+02
5.684142e+01
1.035695e+02
5.876463e+01
1.048328e+02
5.773439e+01
1.065124e+02
5.941404e+01
1.077757e+02
5.839298e+01
1.092309e+02
5.984815e+01
1.104272e+02
5.889026e+01
1.116796e+02
6.014266e+01
1.127732e+02
5.927479e+01
1.138442e+02
6.034585e+01
1.148184e+02
5.957881e+01
1.157278e+02
6.048823e+01
1.165774e+02
5.982378e+01
1.173425e+02
6.058890e+01
1.180688e+02
6.002407e+01
1.187044e+02
6.065968e+01
1.193121e+02
6.018939e+01
1.198305e+02
6.070781e+01
1.203252e+02
6.032635e+01
1.207365e+02
6.073762e+01
1.211242e+02
6.043958e+01
1.214362e+02
6.075161e+01
1.217221e+02
6.053233e+01
1.219408e+02
6.075108e+01
1.221290e+02
6.060694e+01
1.222587e+02
6.073656e+01
1.223520e+02
6.066511e+01
1.223950e+02
6.070805e+01
</DataArray>
<DataArray type="Float32" Name="V2" format="ascii">
7.761582e-01
8.800000e-01
7.781953e-01
8.818485e-01
7.781953e-01
8.818485e-01
7.842433e-01
8.873824e-01
7.842433e-01
8.873824e-01
7.942711e-01
8.965678e-01
7.942711e-01
8.965678e-01
8.081974e-01
9.093536e-01
8.081974e-01
9.093536e-01
8.259016e-01
9.256783e-01
8.259016e-01
9.256783e-01
8.472082e-01
9.454817e-01
8.472082e-01
9.454817e-01
8.718495e-01
9.687157e-01
8.718495e-01
9.687157e-01
8.993667e-01
9.953414e-01
8.993667e-01
9.953414e-01
9.289581e-01
1.025232e+00
9.289581e-01
1.025232e+00
9.593545e-01
1.056123e+00
9.593545e-01
1.056123e+00
9.866566e-01
1.083106e+00
9.866566e-01
1.083106e+00
1.010830e+00
1.107384e+00
1.010830e+00
1.107384e+00
1.032079e+00
1.128942e+00
1.032079e+00
1.128942e+00
1.050824e+00
1.147999e+00
1.050824e+00
1.147999e+00
1.067369e+00
1.164784e+00
1.067369e+00
1.164784e+00
1.081985e+00
1.179556e+00
1.081985e+00
1.179556e+00
1.094900e+00
1.192551e+00
1.094900e+00
1.192551e+00
1.106306e+00
1.203980e+00
1.106306e+00
1.203980e+00
1.116363e+00
1.214021e+00
1.116363e+00
1.214021e+00
1.125206e+00
1.222822e+00
1.125206e+00
1.222822e+00
1.132945e+00
1.230505e+00
1.132945e+00
1.230505e+00
1.139672e+00
1.237169e+00
1.139672e+00
1.237169e+00
1.145460e+00
1.242894e+00
1.145460e+00
1.242894e+00
1.150371e+00
1.247746e+00
1.150371e+00
1.247746e+00
1.154454e+00
1.251775e+00
1.154454e+00
1.251775e+00
1.157745e+00
1.255021e+00
1.157745e+00
1.255021e+00
1.160277e+00
1.257517e+00
1.160277e+00
1.257517e+00
1.162070e+00
1.259283e+00
1.162070e+00
1.259283e+00
1.163140e+00
1.260337e+00
1.163140e+00
1.260337e+00
1.163495e+00
1.260688e+00
</DataArray>
<DataArray type="Float32" Name="V3" format="ascii">
0.000000e+00
0.000000e+00
1.753571e-02
1.222849e-02
1.753571e-02
1.222849e-02
3.466772e-02
2.411951e-02
3.466772e-02
2.411951e-02
5.098807e-02
3.534774e-02
5.098807e-02
3.534774e-02
6.608454e-02
4.560618e-02
6.608454e-02
4.560618e-02
7.953243e-02
5.461956e-02
7.953243e-02
5.461956e-02
9.088317e-02
6.215353e-02
9.088317e-02
6.215353e-02
9.964819e-02
6.801387e-02
9.964819e-02
6.801387e-02
1.052984e-01
7.201128e-02
1.052984e-01
7.201128e-02
1.073863e-01
7.376381e-02
1.073863e-01
7.376381e-02
1.063781e-01
7.257074e-02
1.063781e-01
7.257074e-02
1.040677e-01
7.170639e-02
1.040677e-01
7.170639e-02
1.008680e-01
7.122181e-02
1.008680e-01
7.122181e-02
9.722240e-02
7.073052e-02
9.722240e-02
7.073052e-02
9.320532e-02
6.991167e-02
9.320532e-02
6.991167e-02
8.887360e-02
6.860620e-02
8.887360e-02
6.860620e-02
8.425768e-02
6.674757e-02
8.425768e-02
6.674757e-02
7.937964e-02
6.432631e-02
7.937964e-02
6.432631e-02
7.425679e-02
6.136475e-02
7.425679e-02
6.136475e-02
6.890509e-02
5.790208e-02
6.890509e-02
5.790208e-02
6.334051e-02
5.398529e-02
6.334051e-02
5.398529e-02
5.757976e-02
4.966396e-02
5.757976e-02
4.966396e-02
5.164036e-02
4.498730e-02
5.164036e-02
4.498730e-02
4.554068e-02
4.000279e-02
4.554068e-02
4.000279e-02
3.929971e-02
3.475552e-02
3.929971e-02
3.475552e-02
3.293697e-02
2.928813e-02
3.293697e-02
2.928813e-02
2.647234e-02
2.364095e-02
2.647234e-02
2.364095e-02
1.992597e-02
1.785236e-02
1.992597e-02
1.785236e-02
1.331816e-02
1.195910e-02
1.331816e-02
1.195910e-02
6.669340e-03
5.996726e-03
6.669340e-03
5.996726e-03
0.000000e+00
0.000000e+00
</DataArray>
<DataArray type="Float32" Name="V4" format="ascii">
8.500000e-01
1.000000e+00
8.500000e-01
1.000000e+00
8.500000e-01
1.000000e+00
8.500000e-01
1.000000e+00
8.500000e-01
1.000000e+00
8.500000e-01
1.000000e+00
8.500000e-01
1.000000e+00
8.500000e-01
1.000000e+00
8.500000e-01
1.000000e+00
8.500000e-01
1.000000e+00
8.500000e-01
1.000000e+00
8.500000e-01
1.000000e+00
8.500000e-01
1.000000e+00
8.500000e-01
1.000000e+00
8.500000e-01
1.000000e+00
8.500000e-01
1.000000e+00
8.500000e-01
1.000000e+00
8.500000e-01
1.000000e+00
8.500000e-01
1.000000e+00
8.500000e-01
1.000000e+00
8.500000e-01
1.000000e+00
8.500000e-01
1.000000e+00
8.500000e-01
1.000000e+00
8.500000e-01
1.000000e+00
8.500000e-01
1.000000e+00
8.500000e-01
1.000000e+00
8.500000e-01
1.000000e+00
8.500000e-01
1.000000e+00
8.500000e-01
1.000000e+00
8.500000e-01
1.000000e+00
8.500000e-01
1.000000e+00
8.500000e-01
1.000000e+00
8.500000e-01
1.000000e+00
8.500000e-01
1.000000e+00
8.500000e-01
1.000000e+00
8.500000e-01
1.000000e+00
8.500000e-01
1.000000e+00
8.500000e-01
1.000000e+00
8.500000e-01
1.000000e+00
8.500000e-01
1.000000e+00
8.500000e-01
1.000000e+00
8.500000e-01
1.000000e+00
8.500000e-01
1.000000e+00
8.500000e-01
1.000000e+00
8.500000e-01
1.000000e+00
8.500000e-01
1.000000e+00
8.500000e-01
1.000000e+00
8.500000e-01
1.000000e+00
8.500000e-01
1.000000e+00
8.500000e-01
1.000000e+00
8.500000e-01
1.000000e+00
8.500000e-01
1.000000e+00
8.500000e-01
1.000000e+00
8.500000e-01
1.000000e+00
8.500000e-01
1.000000e+00
8.500000e-01
1.000000e+00
8.500000e-01
1.000000e+00
8.500000e-01
1.000000e+00
8.500000e-01
1.000000e+00
8.500000e-01
1.000000e+00
</DataArray>
<DataArray type="Float32" Name="V5" format="ascii">
0.000000e+00
0.000000e+00
5.235988e-02
5.235988e-02
5.235988e-02
5.235988e-02
1.047198e-01
1.047198e-01
1.047198e-01
1.047198e-01
1.570796e-01
1.570796e-01
1.570796e-01
1.570796e-01
2.094395e-01
2.094395e-01
2.094395e-01
2.094395e-01
2.617994e-01
2.617994e-01
2.617994e-01
2.617994e-01
3.141593e-01
3.141593e-01
3.141593e-01
3.141593e-01
3.665191e-01
3.665191e-01
3.665191e-01
3.665191e-01
4.188790e-01
4.188790e-01
4.188790e-01
4.188790e-01
4.712389e-01
4.712389e-01
4.712389e-01
4.712389e-01
5.235988e-01
5.235988e-01
5.235988e-01
5.235988e-01
5.759587e-01
5.759587e-01
5.759587e-01
5.759587e-01
6.283185e-01
6.283185e-01
6.283185e-01
6.283185e-01
6.806784e-01
6.806784e-01
6.806784e-01
6.806784e-01
7.330383e-01
7.330383e-01
7.330383e-01
7.330383e-01
7.853982e-01
7.853982e-01
7.853982e-01
7.853982e-01
8.377580e-01
8.377580e-01
8.377580e-01
8.377580e-01
8.901179e-01
8.901179e-01
8.901179e-01
8.901179e-01
9.424778e-01
9.424778e-01
9.424778e-01
9.424778e-01
9.948377e-01
9.948377e-01
9.948377e-01
9.948377e-01
1.047198e+00
1.047198e+00
1.047198e+00
1.047198e+00
1.099557e+00
1.099557e+00
1.099557e+00
1.099557e+00
1.151917e+00
1.151917e+00
1.151917e+00
1.151917e+00
1.204277e+00
1.204277e+00
1.204277e+00
1.204277e+00
1.256637e+00
1.256637e+00
1.256637e+00
1.256637e+00
1.308997e+00
1.308997e+00
1.308997e+00
1.308997e+00
1.361357e+00
1.361357e+00
1.361357e+00
1.361357e+00
1.413717e+00
1.413717e+00
1.413717e+00
1.413717e+00
1.466077e+00
1.466077e+00
1.466077e+00
1.466077e+00
1.518436e+00
1.518436e+00
1.518436e+00
1.518436e+00
1.570796e+00
1.570796e+00
</DataArray>
</PointData>
</Piece></UnstructuredGrid>
</VTKFile>
