<?xml version="1.0"?>
<VTKFile type="UnstructuredGrid" version="0.1" byte_order="LittleEndian" compressor="vtkZLibDataCompressor">
<UnstructuredGrid>
<Piece NumberOfPoints="120" NumberOfCells="30">
<Points>
<DataArray type="Float32" NumberOfComponents="3" format="ascii">
0.000000e+00 4.178506e-01 0.000000e+00
0.000000e+00 4.700000e-01 0.000000e+00
8.224799e-02 4.178925e-01 0.000000e+00
8.225460e-02 4.700000e-01 0.000000e+00
8.224799e-02 4.178925e-01 0.000000e+00
8.225460e-02 4.700000e-01 0.000000e+00
1.644996e-01 4.179662e-01 0.000000e+00
1.645120e-01 4.700000e-01 0.000000e+00
1.644996e-01 4.179662e-01 0.000000e+00
1.645120e-01 4.700000e-01 0.000000e+00
2.467545e-01 4.180889e-01 0.000000e+00
2.467729e-01 4.700000e-01 0.000000e+00
2.467545e-01 4.180889e-01 0.000000e+00
2.467729e-01 4.700000e-01 0.000000e+00
3.290150e-01 4.182607e-01 0.000000e+00
3.290390e-01 4.700000e-01 0.000000e+00
3.290150e-01 4.182607e-01 0.000000e+00
3.290390e-01 4.700000e-01 0.000000e+00
4.112830e-01 4.184812e-01 0.000000e+00
4.113125e-01 4.700000e-01 0.000000e+00
4.112830e-01 4.184812e-01 0.000000e+00
4.113125e-01 4.700000e-01 0.000000e+00
4.935608e-01 4.187502e-01 0.000000e+00
4.935955e-01 4.700000e-01 0.000000e+00
4.935608e-01 4.187502e-01 0.000000e+00
4.935955e-01 4.700000e-01 0.000000e+00
5.758506e-01 4.190674e-01 0.000000e+00
5.758901e-01 4.700000e-01 0.000000e+00
5.758506e-01 4.190674e-01 0.000000e+00
5.758901e-01 4.700000e-01 0.000000e+00
6.581550e-01 4.194323e-01 0.000000e+00
6.581989e-01 4.700000e-01 0.000000e+00
6.581550e-01 4.194323e-01 0.000000e+00
6.581989e-01 4.700000e-01 0.000000e+00
7.404768e-01 4.198446e-01 0.000000e+00
7.405247e-01 4.700000e-01 0.000000e+00
7.404768e-01 4.198446e-01 0.000000e+00
7.405247e-01 4.700000e-01 0.000000e+00
8.228190e-01 4.203038e-01 0.000000e+00
8.228708e-01 4.700000e-01 0.000000e+00
8.228190e-01 4.203038e-01 0.000000e+00
8.228708e-01 4.700000e-01 0.000000e+00
9.051850e-01 4.208093e-01 0.000000e+00
9.052412e-01 4.700000e-01 0.000000e+00
9.051850e-01 4.208093e-01 0.000000e+00
9.052412e-01 4.700000e-01 0.000000e+00
9.875783e-01 4.213606e-01 0.000000e+00
9.876406e-01 4.700000e-01 0.000000e+00
9.875783e-01 4.213606e-01 0.000000e+00
9.876406e-01 4.700000e-01 0.000000e+00
1.070002e+00 4.219569e-01 0.000000e+00
1.070075e+00 4.700000e-01 0.000000e+00
1.070002e+00 4.219569e-01 0.000000e+00
1.070075e+00 4.700000e-01 0.000000e+00
1.152461e+00 4.225974e-01 0.000000e+00
1.152554e+00 4.700000e-01 0.000000e+00
1.152461e+00 4.225974e-01 0.000000e+00
1.152554e+00 4.700000e-01 0.000000e+00
1.234954e+00 4.232805e-01 0.000000e+00
1.235090e+00 4.700000e-01 0.000000e+00
1.234954e+00 4.232805e-01 0.000000e+00
1.235090e+00 4.700000e-01 0.000000e+00
1.317481e+00 4.240039e-01 0.000000e+00
1.317703e+00 4.700000e-01 0.000000e+00
1.317481e+00 4.240039e-01 0.000000e+00
1.317703e+00 4.700000e-01 0.000000e+00
1.400029e+00 4.247628e-01 0.000000e+00
1.400430e+00 4.700000e-01 0.000000e+00
1.400029e+00 4.247628e-01 0.000000e+00
1.400430e+00 4.700000e-01 0.000000e+00
1.482567e+00 4.255491e-01 0.000000e+00
1.483335e+00 4.700000e-01 0.000000e+00
1.482567e+00 4.255491e-01 0.000000e+00
1.483335e+00 4.700000e-01 0.000000e+00
1.565024e+00 4.263506e-01 0.000000e+00
1.566546e+00 4.700000e-01 0.000000e+00
1.565024e+00 4.263506e-01 0.000000e+00
1.566546e+00 4.700000e-01 0.000000e+00
1.647236e+00 4.271606e-01 0.000000e+00
1.650316e+00 4.700000e-01 0.000000e+00
1.647236e+00 4.271606e-01 0.000000e+00
1.650316e+00 4.700000e-01 0.000000e+00
1.728826e+00 4.280171e-01 0.000000e+00
1.735134e+00 4.700000e-01 0.000000e+00
1.728826e+00 4.280171e-01 0.000000e+00
1.735134e+00 4.700000e-01 0.000000e+00
1.809163e+00 4.288460e-01 0.000000e+00
1.820724e+00 4.700000e-01 0.000000e+00
1.809163e+00 4.288460e-01 0.000000e+00
1.820724e+00 4.700000e-01 0.000000e+00
1.887816e+00 4.206023e-01 0.000000e+00
1.902929e+00 4.588886e-01 0.000000e+00
1.887816e+00 4.206023e-01 0.000000e+00
1.902929e+00 4.588886e-01 0.000000e+00
1.961029e+00 3.926966e-01 0.000000e+00
1.981099e+00 4.273095e-01 0.000000e+00
1.961029e+00 3.926966e-01 0.000000e+00
1.981099e+00 4.273095e-01 0.000000e+00
2.026128e+00 3.494915e-01 0.000000e+00
2.051293e+00 3.793951e-01 0.000000e+00
2.026128e+00 3.494915e-01 0.000000e+00
2.051293e+00 3.793951e-01 0.000000e+00
2.081328e+00 2.938956e-01 0.000000e+00
2.110842e+00 3.183125e-01 0.000000e+00
2.081328e+00 2.938956e-01 0.000000e+00
2.110842e+00 3.183125e-01 0.000000e+00
2.125358e+00 2.286295e-01 0.000000e+00
2.158199e+00 2.471267e-01 0.000000e+00
2.125358e+00 2.286295e-01 0.000000e+00
2.158199e+00 2.471267e-01 0.000000e+00
2.157346e+00 1.562750e-01 0.000000e+00
2.192479e+00 1.686578e-01 0.000000e+00
2.157346e+00 1.562750e-01 0.000000e+00
2.192479e+00 1.686578e-01 0.000000e+00
2.176737e+00 7.928280e-02 0.000000e+00
2.213203e+00 8.548261e-02 0.000000e+00
2.176737e+00 7.928280e-02 0.000000e+00
2.213203e+00 8.548261e-02 0.000000e+00
2.183233e+00 1.069039e-11 0.000000e+00
2.220135e+00 1.087109e-11 0.000000e+00
</DataArray>
</Points>
<Cells>
<DataArray type="Int32" Name="connectivity" format="ascii">
0 1 3 2
4 5 7 6
8 9 11 10
12 13 15 14
16 17 19 18
20 21 23 22
24 25 27 26
28 29 31 30
32 33 35 34
36 37 39 38
40 41 43 42
44 45 47 46
48 49 51 50
52 53 55 54
56 57 59 58
60 61 63 62
64 65 67 66
68 69 71 70
72 73 75 74
76 77 79 78
80 81 83 82
84 85 87 86
88 89 91 90
92 93 95 94
96 97 99 98
100 101 103 102
104 105 107 106
108 109 111 110
112 113 115 114
116 117 119 118
</DataArray>
<DataArray type="Int32" Name="offsets" format="ascii">
4
8
12
16
20
24
28
32
36
40
44
48
52
56
60
64
68
72
76
80
84
88
92
96
100
104
108
112
116
120
</DataArray>
<DataArray type="UInt8" Name="types" format="ascii">
9
9
9
9
9
9
9
9
9
9
9
9
9
9
9
9
9
9
9
9
9
9
9
9
9
9
9
9
9
9
</DataArray>
</Cells>
<PointData>
<DataArray type="Float32" Name="V1" format="ascii">
1.509720e+03
2.727539e+02
1.511615e+03
2.746487e+02
1.513157e+03
2.734122e+02
1.518275e+03
2.785293e+02
1.521512e+03
2.761371e+02
1.530099e+03
2.847241e+02
1.535003e+03
2.811126e+02
1.547153e+03
2.932632e+02
1.553769e+03
2.883937e+02
1.569621e+03
3.042461e+02
1.578017e+03
2.980666e+02
1.597752e+03
3.178018e+02
1.608013e+03
3.102470e+02
1.631860e+03
3.340941e+02
1.644094e+03
3.250832e+02
1.672336e+03
3.533246e+02
1.686675e+03
3.427599e+02
1.719654e+03
3.757390e+02
1.736252e+03
3.635039e+02
1.774382e+03
4.016340e+02
1.793418e+03
3.875917e+02
1.837194e+03
4.313673e+02
1.858872e+03
4.153603e+02
1.908884e+03
4.653728e+02
1.933420e+03
4.472240e+02
1.990378e+03
5.041820e+02
2.017984e+03
4.837015e+02
2.082744e+03
5.484607e+02
2.113575e+03
5.254634e+02
2.187184e+03
5.990723e+02
2.221228e+03
5.734197e+02
2.305002e+03
6.571933e+02
2.341838e+03
6.288921e+02
2.437482e+03
7.245361e+02
2.475769e+03
6.939767e+02
2.585573e+03
8.037815e+02
2.622026e+03
7.723666e+02
2.749067e+03
8.994082e+02
2.776521e+03
8.713804e+02
2.924384e+03
1.019243e+03
2.928604e+03
1.007192e+03
3.098730e+03
1.177318e+03
3.037311e+03
1.223525e+03
3.248616e+03
1.434830e+03
3.123479e+03
1.576187e+03
3.359694e+03
1.812402e+03
3.323345e+03
1.820190e+03
3.533655e+03
2.030501e+03
3.573285e+03
2.004497e+03
3.773243e+03
2.204454e+03
3.834731e+03
2.162459e+03
4.014877e+03
2.342605e+03
4.077739e+03
2.297664e+03
4.228316e+03
2.448241e+03
4.281727e+03
2.408913e+03
4.394788e+03
2.521973e+03
4.432919e+03
2.493426e+03
4.502904e+03
2.563412e+03
4.522651e+03
2.548506e+03
4.546331e+03
2.572186e+03
</DataArray>
<DataArray type="Float32" Name="V2" format="ascii">
4.178506e-01
4.700000e-01
4.216243e-01
4.736608e-01
4.216243e-01
4.736608e-01
4.328714e-01
4.846215e-01
4.328714e-01
4.846215e-01
4.515425e-01
5.028173e-01
4.515425e-01
5.028173e-01
4.775268e-01
5.281404e-01
4.775268e-01
5.281404e-01
5.106697e-01
5.604407e-01
5.106697e-01
5.604407e-01
5.507738e-01
5.995259e-01
5.507738e-01
5.995259e-01
5.975995e-01
6.451633e-01
5.975995e-01
6.451633e-01
6.508663e-01
6.970800e-01
6.508663e-01
6.970800e-01
7.102537e-01
7.549642e-01
7.102537e-01
7.549642e-01
7.754032e-01
8.184674e-01
7.754032e-01
8.184674e-01
8.459194e-01
8.872049e-01
8.459194e-01
8.872049e-01
9.213718e-01
9.607586e-01
9.213718e-01
9.607586e-01
1.001296e+00
1.038679e+00
1.001296e+00
1.038679e+00
1.085198e+00
1.120487e+00
1.085198e+00
1.120487e+00
1.172549e+00
1.205681e+00
1.172549e+00
1.205681e+00
1.262793e+00
1.293736e+00
1.262793e+00
1.293736e+00
1.355339e+00
1.384119e+00
1.355339e+00
1.384119e+00
1.449554e+00
1.476302e+00
1.449554e+00
1.476302e+00
1.544747e+00
1.569797e+00
1.544747e+00
1.569797e+00
1.640129e+00
1.664215e+00
1.640129e+00
1.664215e+00
1.734711e+00
1.759391e+00
1.734711e+00
1.759391e+00
1.827180e+00
1.854480e+00
1.827180e+00
1.854480e+00
1.913158e+00
1.940989e+00
1.913158e+00
1.940989e+00
1.986400e+00
2.016183e+00
1.986400e+00
2.016183e+00
2.047545e+00
2.079591e+00
2.047545e+00
2.079591e+00
2.096950e+00
2.130896e+00
2.096950e+00
2.130896e+00
2.134957e+00
2.170287e+00
2.134957e+00
2.170287e+00
2.161863e+00
2.198098e+00
2.161863e+00
2.198098e+00
2.177904e+00
2.214644e+00
2.177904e+00
2.214644e+00
2.183233e+00
2.220135e+00
</DataArray>
<DataArray type="Float32" Name="V3" format="ascii">
0.000000e+00
0.000000e+00
6.026447e-02
5.754397e-02
6.026447e-02
5.754397e-02
1.199091e-01
1.144824e-01
1.199091e-01
1.144824e-01
1.783131e-01
1.702105e-01
1.783131e-01
1.702105e-01
2.348640e-01
2.241303e-01
2.348640e-01
2.241303e-01
2.889580e-01
2.756524e-01
2.889580e-01
2.756524e-01
3.400033e-01
3.241992e-01
3.400033e-01
3.241992e-01
3.874225e-01
3.692067e-01
3.874225e-01
3.692067e-01
4.306560e-01
4.101284e-01
4.306560e-01
4.101284e-01
4.691642e-01
4.464368e-01
4.691642e-01
4.464368e-01
5.024303e-01
4.776270e-01
5.024303e-01
4.776270e-01
5.299629e-01
5.032188e-01
5.299629e-01
5.032188e-01
5.512981e-01
5.227589e-01
5.512981e-01
5.227589e-01
5.660020e-01
5.358241e-01
5.660020e-01
5.358241e-01
5.736723e-01
5.420232e-01
5.736723e-01
5.420232e-01
5.739400e-01
5.410002e-01
5.739400e-01
5.410002e-01
5.664704e-01
5.324374e-01
5.664704e-01
5.324374e-01
5.509639e-01
5.160604e-01
5.509639e-01
5.160604e-01
5.271547e-01
4.916446e-01
5.271547e-01
4.916446e-01
4.948056e-01
4.590271e-01
4.948056e-01
4.590271e-01
4.536862e-01
4.181258e-01
4.536862e-01
4.181258e-01
4.035045e-01
3.689611e-01
4.035045e-01
3.689611e-01
3.440824e-01
3.111888e-01
3.440824e-01
3.111888e-01
2.838666e-01
2.535395e-01
2.838666e-01
2.535395e-01
2.325147e-01
2.057976e-01
2.325147e-01
2.057976e-01
1.868178e-01
1.644460e-01
1.868178e-01
1.644460e-01
1.452591e-01
1.275121e-01
1.452591e-01
1.275121e-01
1.066646e-01
9.353245e-02
1.066646e-01
9.353245e-02
7.008515e-02
6.144260e-02
7.008515e-02
6.144260e-02
3.474749e-02
3.046465e-02
3.474749e-02
3.046465e-02
0.000000e+00
0.000000e+00
</DataArray>
<DataArray type="Float32" Name="V4" format="ascii">
8.500000e-01
1.000000e+00
8.500000e-01
1.000000e+00
8.500000e-01
1.000000e+00
8.500000e-01
1.000000e+00
8.500000e-01
1.000000e+00
8.500000e-01
1.000000e+00
8.500000e-01
1.000000e+00
8.500000e-01
1.000000e+00
8.500000e-01
1.000000e+00
8.500000e-01
1.000000e+00
8.500000e-01
1.000000e+00
8.500000e-01
1.000000e+00
8.500000e-01
1.000000e+00
8.500000e-01
1.000000e+00
8.500000e-01
1.000000e+00
8.500000e-01
1.000000e+00
8.500000e-01
1.000000e+00
8.500000e-01
1.000000e+00
8.500000e-01
1.000000e+00
8.500000e-01
1.000000e+00
8.500000e-01
1.000000e+00
8.500000e-01
1.000000e+00
8.500000e-01
1.000000e+00
8.500000e-01
1.000000e+00
8.500000e-01
1.000000e+00
8.500000e-01
1.000000e+00
8.500000e-01
1.000000e+00
8.500000e-01
1.000000e+00
8.500000e-01
1.000000e+00
8.500000e-01
1.000000e+00
8.500000e-01
1.000000e+00
8.500000e-01
1.000000e+00
8.500000e-01
1.000000e+00
8.500000e-01
1.000000e+00
8.500000e-01
1.000000e+00
8.500000e-01
1.000000e+00
8.500000e-01
1.000000e+00
8.500000e-01
1.000000e+00
8.500000e-01
1.000000e+00
8.500000e-01
1.000000e+00
8.500000e-01
1.000000e+00
8.500000e-01
1.000000e+00
8.500000e-01
1.000000e+00
8.500000e-01
1.000000e+00
8.500000e-01
1.000000e+00
8.500000e-01
1.000000e+00
8.500000e-01
1.000000e+00
8.500000e-01
1.000000e+00
8.500000e-01
1.000000e+00
8.500000e-01
1.000000e+00
8.500000e-01
1.000000e+00
8.500000e-01
1.000000e+00
8.500000e-01
1.000000e+00
8.500000e-01
1.000000e+00
8.500000e-01
1.000000e+00
8.500000e-01
1.000000e+00
8.500000e-01
1.000000e+00
8.500000e-01
1.000000e+00
8.500000e-01
1.000000e+00
8.500000e-01
1.000000e+00
</DataArray>
<DataArray type="Float32" Name="V5" format="ascii">
0.000000e+00
0.000000e+00
5.235988e-02
5.235988e-02
5.235988e-02
5.235988e-02
1.047198e-01
1.047198e-01
1.047198e-01
1.047198e-01
1.570796e-01
1.570796e-01
1.570796e-01
1.570796e-01
2.094395e-01
2.094395e-01
2.094395e-01
2.094395e-01
2.617994e-01
2.617994e-01
2.617994e-01
2.617994e-01
3.141593e-01
3.141593e-01
3.141593e-01
3.141593e-01
3.665191e-01
3.665191e-01
3.665191e-01
3.665191e-01
4.188790e-01
4.188790e-01
4.188790e-01
4.188790e-01
4.712389e-01
4.712389e-01
4.712389e-01
4.712389e-01
5.235988e-01
5.235988e-01
5.235988e-01
5.235988e-01
5.759587e-01
5.759587e-01
5.759587e-01
5.759587e-01
6.283185e-01
6.283185e-01
6.283185e-01
6.283185e-01
6.806784e-01
6.806784e-01
6.806784e-01
6.806784e-01
7.330383e-01
7.330383e-01
7.330383e-01
7.330383e-01
7.853982e-01
7.853982e-01
7.853982e-01
7.853982e-01
8.377580e-01
8.377580e-01
8.377580e-01
8.377580e-01
8.901179e-01
8.901179e-01
8.901179e-01
8.901179e-01
9.424778e-01
9.424778e-01
9.424778e-01
9.424778e-01
9.948377e-01
9.948377e-01
9.948377e-01
9.948377e-01
1.047198e+00
1.047198e+00
1.047198e+00
1.047198e+00
1.099557e+00
1.099557e+00
1.099557e+00
1.099557e+00
1.151917e+00
1.151917e+00
1.151917e+00
1.151917e+00
1.204277e+00
1.204277e+00
1.204277e+00
1.204277e+00
1.256637e+00
1.256637e+00
1.256637e+00
1.256637e+00
1.308997e+00
1.308997e+00
1.308997e+00
1.308997e+00
1.361357e+00
1.361357e+00
1.361357e+00
1.361357e+00
1.413717e+00
1.413717e+00
1.413717e+00
1.413717e+00
1.466077e+00
1.466077e+00
1.466077e+00
1.466077e+00
1.518436e+00
1.518436e+00
1.518436e+00
1.518436e+00
1.570796e+00
1.570796e+00
</DataArray>
</PointData>
</Piece></UnstructuredGrid>
</VTKFile>
