<?xml version="1.0"?>
<VTKFile type="UnstructuredGrid" version="0.1" byte_order="LittleEndian" compressor="vtkZLibDataCompressor">
<UnstructuredGrid>
<Piece NumberOfPoints="120" NumberOfCells="30">
<Points>
<DataArray type="Float32" NumberOfComponents="3" format="ascii">
0.000000e+00 8.438591e-01 0.000000e+00
0.000000e+00 9.500000e-01 0.000000e+00
5.749565e-02 8.439301e-01 0.000000e+00
5.790492e-02 9.500000e-01 0.000000e+00
5.749565e-02 8.439301e-01 0.000000e+00
5.790492e-02 9.500000e-01 0.000000e+00
1.149429e-01 8.440847e-01 0.000000e+00
1.158793e-01 9.500000e-01 0.000000e+00
1.149429e-01 8.440847e-01 0.000000e+00
1.158793e-01 9.500000e-01 0.000000e+00
1.722784e-01 8.443497e-01 0.000000e+00
1.740123e-01 9.500000e-01 0.000000e+00
1.722784e-01 8.443497e-01 0.000000e+00
1.740123e-01 9.500000e-01 0.000000e+00
2.294086e-01 8.447287e-01 0.000000e+00
2.324190e-01 9.500000e-01 0.000000e+00
2.294086e-01 8.447287e-01 0.000000e+00
2.324190e-01 9.500000e-01 0.000000e+00
2.861787e-01 8.452032e-01 0.000000e+00
2.912458e-01 9.500000e-01 0.000000e+00
2.861787e-01 8.452032e-01 0.000000e+00
2.912458e-01 9.500000e-01 0.000000e+00
3.423321e-01 8.456661e-01 0.000000e+00
3.506393e-01 9.500000e-01 0.000000e+00
3.423321e-01 8.456661e-01 0.000000e+00
3.506393e-01 9.500000e-01 0.000000e+00
3.975246e-01 8.457685e-01 0.000000e+00
4.105608e-01 9.500000e-01 0.000000e+00
3.975246e-01 8.457685e-01 0.000000e+00
4.105608e-01 9.500000e-01 0.000000e+00
4.518065e-01 8.445616e-01 0.000000e+00
4.698392e-01 9.486415e-01 0.000000e+00
4.518065e-01 8.445616e-01 0.000000e+00
4.698392e-01 9.486415e-01 0.000000e+00
5.047999e-01 8.384869e-01 0.000000e+00
5.286170e-01 9.407325e-01 0.000000e+00
5.047999e-01 8.384869e-01 0.000000e+00
5.286170e-01 9.407325e-01 0.000000e+00
5.563292e-01 8.274697e-01 0.000000e+00
5.870105e-01 9.271996e-01 0.000000e+00
5.563292e-01 8.274697e-01 0.000000e+00
5.870105e-01 9.271996e-01 0.000000e+00
6.063897e-01 8.116308e-01 0.000000e+00
6.442362e-01 9.083377e-01 0.000000e+00
6.063897e-01 8.116308e-01 0.000000e+00
6.442362e-01 9.083377e-01 0.000000e+00
6.548383e-01 7.914249e-01 0.000000e+00
6.997173e-01 8.846252e-01 0.000000e+00
6.548383e-01 7.914249e-01 0.000000e+00
6.997173e-01 8.846252e-01 0.000000e+00
7.015082e-01 7.672119e-01 0.000000e+00
7.530595e-01 8.564965e-01 0.000000e+00
7.015082e-01 7.672119e-01 0.000000e+00
7.530595e-01 8.564965e-01 0.000000e+00
7.462441e-01 7.393355e-01 0.000000e+00
8.040079e-01 8.243744e-01 0.000000e+00
7.462441e-01 7.393355e-01 0.000000e+00
8.040079e-01 8.243744e-01 0.000000e+00
7.889025e-01 7.081090e-01 0.000000e+00
8.523865e-01 7.886417e-01 0.000000e+00
7.889025e-01 7.081090e-01 0.000000e+00
8.523865e-01 7.886417e-01 0.000000e+00
8.293536e-01 6.738219e-01 0.000000e+00
8.980683e-01 7.496420e-01 0.000000e+00
8.293536e-01 6.738219e-01 0.000000e+00
8.980683e-01 7.496420e-01 0.000000e+00
8.674802e-01 6.367425e-01 0.000000e+00
9.409552e-01 7.076840e-01 0.000000e+00
8.674802e-01 6.367425e-01 0.000000e+00
9.409552e-01 7.076840e-01 0.000000e+00
9.031771e-01 5.971207e-01 0.000000e+00
9.809668e-01 6.630473e-01 0.000000e+00
9.031771e-01 5.971207e-01 0.000000e+00
9.809668e-01 6.630473e-01 0.000000e+00
9.363497e-01 5.551913e-01 0.000000e+00
1.018034e+00 6.159881e-01 0.000000e+00
9.363497e-01 5.551913e-01 0.000000e+00
1.018034e+00 6.159881e-01 0.000000e+00
9.669131e-01 5.111762e-01 0.000000e+00
1.052094e+00 5.667443e-01 0.000000e+00
9.669131e-01 5.111762e-01 0.000000e+00
1.052094e+00 5.667443e-01 0.000000e+00
9.947909e-01 4.652873e-01 0.000000e+00
1.083091e+00 5.155401e-01 0.000000e+00
9.947909e-01 4.652873e-01 0.000000e+00
1.083091e+00 5.155401e-01 0.000000e+00
1.019915e+00 4.177282e-01 0.000000e+00
1.110973e+00 4.625894e-01 0.000000e+00
1.019915e+00 4.177282e-01 0.000000e+00
1.110973e+00 4.625894e-01 0.000000e+00
1.042225e+00 3.686960e-01 0.000000e+00
1.135693e+00 4.080985e-01 0.000000e+00
1.042225e+00 3.686960e-01 0.000000e+00
1.135693e+00 4.080985e-01 0.000000e+00
1.061667e+00 3.183831e-01 0.000000e+00
1.157207e+00 3.522677e-01 0.000000e+00
1.061667e+00 3.183831e-01 0.000000e+00
1.157207e+00 3.522677e-01 0.000000e+00
1.078196e+00 2.669778e-01 0.000000e+00
1.175478e+00 2.952938e-01 0.000000e+00
1.078196e+00 2.669778e-01 0.000000e+00
1.175478e+00 2.952938e-01 0.000000e+00
1.091773e+00 2.146657e-01 0.000000e+00
1.190474e+00 2.373705e-01 0.000000e+00
1.091773e+00 2.146657e-01 0.000000e+00
1.190474e+00 2.373705e-01 0.000000e+00
1.102366e+00 1.616304e-01 0.000000e+00
1.202166e+00 1.786894e-01 0.000000e+00
1.102366e+00 1.616304e-01 0.000000e+00
1.202166e+00 1.786894e-01 0.000000e+00
1.109950e+00 1.080538e-01 0.000000e+00
1.210533e+00 1.194411e-01 0.000000e+00
1.109950e+00 1.080538e-01 0.000000e+00
1.210533e+00 1.194411e-01 0.000000e+00
1.114507e+00 5.411693e-02 0.000000e+00
1.215559e+00 5.981492e-02 0.000000e+00
1.114507e+00 5.411693e-02 0.000000e+00
1.215559e+00 5.981492e-02 0.000000e+00
1.116027e+00 5.464730e-12 0.000000e+00
1.217236e+00 5.960300e-12 0.000000e+00
</DataArray>
</Points>
<Cells>
<DataArray type="Int32" Name="connectivity" format="ascii">
0 1 3 2
4 5 7 6
8 9 11 10
12 13 15 14
16 17 19 18
20 21 23 22
24 25 27 26
28 29 31 30
32 33 35 34
36 37 39 38
40 41 43 42
44 45 47 46
48 49 51 50
52 53 55 54
56 57 59 58
60 61 63 62
64 65 67 66
68 69 71 70
72 73 75 74
76 77 79 78
80 81 83 82
84 85 87 86
88 89 91 90
92 93 95 94
96 97 99 98
100 101 103 102
104 105 107 106
108 109 111 110
112 113 115 114
116 117 119 118
</DataArray>
<DataArray type="Int32" Name="offsets" format="ascii">
4
8
12
16
20
24
28
32
36
40
44
48
52
56
60
64
68
72
76
80
84
88
92
96
100
104
108
112
116
120
</DataArray>
<DataArray type="UInt8" Name="types" format="ascii">
9
9
9
9
9
9
9
9
9
9
9
9
9
9
9
9
9
9
9
9
9
9
9
9
9
9
9
9
9
9
</DataArray>
</Cells>
<PointData>
<DataArray type="Float32" Name="V1" format="ascii">
1.075394e+02
-2.497473e+01
1.076962e+02
-2.481796e+01
1.074240e+02
-2.468607e+01
1.077855e+02
-2.432460e+01
1.071390e+02
-2.395272e+01
1.077688e+02
-2.332291e+01
1.064156e+02
-2.250402e+01
1.073697e+02
-2.154987e+01
1.047358e+02
-1.986537e+01
1.061161e+02
-1.848507e+01
1.012350e+02
-1.515647e+01
1.033001e+02
-1.309142e+01
9.453374e+01
-6.615764e+00
9.813169e+01
-3.017814e+00
8.363289e+01
9.989502e+00
8.950222e+01
1.585884e+01
7.757510e+01
2.455277e+01
8.068255e+01
2.766023e+01
7.479102e+01
3.152807e+01
7.684397e+01
3.358102e+01
7.397263e+01
3.582043e+01
7.581268e+01
3.766049e+01
7.463650e+01
3.863918e+01
7.632238e+01
4.032506e+01
7.609312e+01
4.053022e+01
7.761415e+01
4.205125e+01
7.792601e+01
4.180645e+01
7.927659e+01
4.315704e+01
7.987488e+01
4.267556e+01
8.105948e+01
4.386016e+01
8.178937e+01
4.327348e+01
8.281962e+01
4.430373e+01
8.358700e+01
4.369052e+01
8.447783e+01
4.458136e+01
8.522753e+01
4.398646e+01
8.599463e+01
4.475356e+01
8.669596e+01
4.420089e+01
8.735423e+01
4.485916e+01
8.799175e+01
4.435998e+01
8.855466e+01
4.492288e+01
8.912219e+01
4.448100e+01
8.960148e+01
4.496029e+01
9.009824e+01
4.457540e+01
9.050397e+01
4.498112e+01
9.093210e+01
4.465077e+01
9.127272e+01
4.499138e+01
9.163580e+01
4.471219e+01
9.191833e+01
4.499472e+01
9.222042e+01
4.476308e+01
9.245061e+01
4.499327e+01
9.269565e+01
4.480580e+01
9.287812e+01
4.498826e+01
9.306968e+01
4.484198e+01
9.320803e+01
4.498033e+01
9.334905e+01
4.487278e+01
9.344600e+01
4.496973e+01
9.353874e+01
4.489907e+01
9.359618e+01
4.495650e+01
9.364216e+01
4.492148e+01
9.366119e+01
4.494050e+01
</DataArray>
<DataArray type="Float32" Name="V2" format="ascii">
8.438591e-01
9.500000e-01
8.457826e-01
9.517286e-01
8.457826e-01
9.517286e-01
8.514755e-01
9.569085e-01
8.514755e-01
9.569085e-01
8.609046e-01
9.655255e-01
8.609046e-01
9.655255e-01
8.739660e-01
9.775628e-01
8.739660e-01
9.775628e-01
8.904721e-01
9.930095e-01
8.904721e-01
9.930095e-01
9.100627e-01
1.011857e+00
9.100627e-01
1.011857e+00
9.320530e-01
1.034033e+00
9.320530e-01
1.034033e+00
9.553117e-01
1.057728e+00
9.553117e-01
1.057728e+00
9.762717e-01
1.078186e+00
9.762717e-01
1.078186e+00
9.947743e-01
1.096484e+00
9.947743e-01
1.096484e+00
1.010954e+00
1.112672e+00
1.010954e+00
1.112672e+00
1.025181e+00
1.126960e+00
1.025181e+00
1.126960e+00
1.037709e+00
1.139539e+00
1.037709e+00
1.139539e+00
1.048768e+00
1.150616e+00
1.048768e+00
1.150616e+00
1.058547e+00
1.160382e+00
1.058547e+00
1.160382e+00
1.067205e+00
1.169003e+00
1.067205e+00
1.169003e+00
1.074874e+00
1.176620e+00
1.074874e+00
1.176620e+00
1.081664e+00
1.183348e+00
1.081664e+00
1.183348e+00
1.087668e+00
1.189286e+00
1.087668e+00
1.189286e+00
1.092959e+00
1.194512e+00
1.092959e+00
1.194512e+00
1.097601e+00
1.199091e+00
1.097601e+00
1.199091e+00
1.101644e+00
1.203076e+00
1.101644e+00
1.203076e+00
1.105129e+00
1.206510e+00
1.105129e+00
1.206510e+00
1.108091e+00
1.209426e+00
1.108091e+00
1.209426e+00
1.110556e+00
1.211853e+00
1.110556e+00
1.211853e+00
1.112547e+00
1.213811e+00
1.112547e+00
1.213811e+00
1.114078e+00
1.215318e+00
1.114078e+00
1.215318e+00
1.115164e+00
1.216386e+00
1.115164e+00
1.216386e+00
1.115812e+00
1.217024e+00
1.115812e+00
1.217024e+00
1.116027e+00
1.217236e+00
</DataArray>
<DataArray type="Float32" Name="V3" format="ascii">
0.000000e+00
0.000000e+00
1.324896e-02
8.106407e-03
1.324896e-02
8.106407e-03
2.608235e-02
1.594247e-02
2.608235e-02
1.594247e-02
3.807200e-02
2.325720e-02
3.807200e-02
2.325720e-02
4.876650e-02
2.982396e-02
4.876650e-02
2.982396e-02
5.767270e-02
3.544376e-02
5.767270e-02
3.544376e-02
6.425201e-02
3.991168e-02
6.425201e-02
3.991168e-02
6.802489e-02
4.284198e-02
6.802489e-02
4.284198e-02
6.923166e-02
4.337222e-02
6.923166e-02
4.337222e-02
6.911495e-02
4.391752e-02
6.911495e-02
4.391752e-02
6.806040e-02
4.476621e-02
6.806040e-02
4.476621e-02
6.651535e-02
4.558575e-02
6.651535e-02
4.558575e-02
6.458740e-02
4.611349e-02
6.458740e-02
4.611349e-02
6.235216e-02
4.622648e-02
6.235216e-02
4.622648e-02
5.985544e-02
4.588013e-02
5.985544e-02
4.588013e-02
5.712967e-02
4.507439e-02
5.712967e-02
4.507439e-02
5.419860e-02
4.383242e-02
5.419860e-02
4.383242e-02
5.108111e-02
4.218852e-02
5.108111e-02
4.218852e-02
4.779336e-02
4.018128e-02
4.779336e-02
4.018128e-02
4.435002e-02
3.784986e-02
4.435002e-02
3.784986e-02
4.076494e-02
3.523207e-02
4.076494e-02
3.523207e-02
3.705156e-02
3.236344e-02
3.705156e-02
3.236344e-02
3.322308e-02
2.927695e-02
3.322308e-02
2.927695e-02
2.929254e-02
2.600311e-02
2.929254e-02
2.600311e-02
2.527288e-02
2.257013e-02
2.527288e-02
2.257013e-02
2.117695e-02
1.900424e-02
2.117695e-02
1.900424e-02
1.701757e-02
1.533001e-02
1.701757e-02
1.533001e-02
1.280749e-02
1.157066e-02
1.280749e-02
1.157066e-02
8.559417e-03
7.748357e-03
8.559417e-03
7.748357e-03
4.286034e-03
3.884505e-03
4.286034e-03
3.884505e-03
0.000000e+00
0.000000e+00
</DataArray>
<DataArray type="Float32" Name="V4" format="ascii">
8.500000e-01
1.000000e+00
8.500000e-01
1.000000e+00
8.500000e-01
1.000000e+00
8.500000e-01
1.000000e+00
8.500000e-01
1.000000e+00
8.500000e-01
1.000000e+00
8.500000e-01
1.000000e+00
8.500000e-01
1.000000e+00
8.500000e-01
1.000000e+00
8.500000e-01
1.000000e+00
8.500000e-01
1.000000e+00
8.500000e-01
1.000000e+00
8.500000e-01
1.000000e+00
8.500000e-01
1.000000e+00
8.500000e-01
1.000000e+00
8.500000e-01
1.000000e+00
8.500000e-01
1.000000e+00
8.500000e-01
1.000000e+00
8.500000e-01
1.000000e+00
8.500000e-01
1.000000e+00
8.500000e-01
1.000000e+00
8.500000e-01
1.000000e+00
8.500000e-01
1.000000e+00
8.500000e-01
1.000000e+00
8.500000e-01
1.000000e+00
8.500000e-01
1.000000e+00
8.500000e-01
1.000000e+00
8.500000e-01
1.000000e+00
8.500000e-01
1.000000e+00
8.500000e-01
1.000000e+00
8.500000e-01
1.000000e+00
8.500000e-01
1.000000e+00
8.500000e-01
1.000000e+00
8.500000e-01
1.000000e+00
8.500000e-01
1.000000e+00
8.500000e-01
1.000000e+00
8.500000e-01
1.000000e+00
8.500000e-01
1.000000e+00
8.500000e-01
1.000000e+00
8.500000e-01
1.000000e+00
8.500000e-01
1.000000e+00
8.500000e-01
1.000000e+00
8.500000e-01
1.000000e+00
8.500000e-01
1.000000e+00
8.500000e-01
1.000000e+00
8.500000e-01
1.000000e+00
8.500000e-01
1.000000e+00
8.500000e-01
1.000000e+00
8.500000e-01
1.000000e+00
8.500000e-01
1.000000e+00
8.500000e-01
1.000000e+00
8.500000e-01
1.000000e+00
8.500000e-01
1.000000e+00
8.500000e-01
1.000000e+00
8.500000e-01
1.000000e+00
8.500000e-01
1.000000e+00
8.500000e-01
1.000000e+00
8.500000e-01
1.000000e+00
8.500000e-01
1.000000e+00
8.500000e-01
1.000000e+00
</DataArray>
<DataArray type="Float32" Name="V5" format="ascii">
0.000000e+00
0.000000e+00
5.235988e-02
5.235988e-02
5.235988e-02
5.235988e-02
1.047198e-01
1.047198e-01
1.047198e-01
1.047198e-01
1.570796e-01
1.570796e-01
1.570796e-01
1.570796e-01
2.094395e-01
2.094395e-01
2.094395e-01
2.094395e-01
2.617994e-01
2.617994e-01
2.617994e-01
2.617994e-01
3.141593e-01
3.141593e-01
3.141593e-01
3.141593e-01
3.665191e-01
3.665191e-01
3.665191e-01
3.665191e-01
4.188790e-01
4.188790e-01
4.188790e-01
4.188790e-01
4.712389e-01
4.712389e-01
4.712389e-01
4.712389e-01
5.235988e-01
5.235988e-01
5.235988e-01
5.235988e-01
5.759587e-01
5.759587e-01
5.759587e-01
5.759587e-01
6.283185e-01
6.283185e-01
6.283185e-01
6.283185e-01
6.806784e-01
6.806784e-01
6.806784e-01
6.806784e-01
7.330383e-01
7.330383e-01
7.330383e-01
7.330383e-01
7.853982e-01
7.853982e-01
7.853982e-01
7.853982e-01
8.377580e-01
8.377580e-01
8.377580e-01
8.377580e-01
8.901179e-01
8.901179e-01
8.901179e-01
8.901179e-01
9.424778e-01
9.424778e-01
9.424778e-01
9.424778e-01
9.948377e-01
9.948377e-01
9.948377e-01
9.948377e-01
1.047198e+00
1.047198e+00
1.047198e+00
1.047198e+00
1.099557e+00
1.099557e+00
1.099557e+00
1.099557e+00
1.151917e+00
1.151917e+00
1.151917e+00
1.151917e+00
1.204277e+00
1.204277e+00
1.204277e+00
1.204277e+00
1.256637e+00
1.256637e+00
1.256637e+00
1.256637e+00
1.308997e+00
1.308997e+00
1.308997e+00
1.308997e+00
1.361357e+00
1.361357e+00
1.361357e+00
1.361357e+00
1.413717e+00
1.413717e+00
1.413717e+00
1.413717e+00
1.466077e+00
1.466077e+00
1.466077e+00
1.466077e+00
1.518436e+00
1.518436e+00
1.518436e+00
1.518436e+00
1.570796e+00
1.570796e+00
</DataArray>
</PointData>
</Piece></UnstructuredGrid>
</VTKFile>
