<?xml version="1.0"?>
<VTKFile type="UnstructuredGrid" version="0.1" byte_order="LittleEndian" compressor="vtkZLibDataCompressor">
<UnstructuredGrid>
<Piece NumberOfPoints="120" NumberOfCells="30">
<Points>
<DataArray type="Float32" NumberOfComponents="3" format="ascii">
0.000000e+00 8.773495e-01 0.000000e+00
0.000000e+00 1.020000e+00 0.000000e+00
4.591693e-02 8.761472e-01 0.000000e+00
5.338267e-02 1.018602e+00 0.000000e+00
4.591693e-02 8.761472e-01 0.000000e+00
5.338267e-02 1.018602e+00 0.000000e+00
9.170800e-02 8.725433e-01 0.000000e+00
1.066190e-01 1.014412e+00 0.000000e+00
9.170800e-02 8.725433e-01 0.000000e+00
1.066190e-01 1.014412e+00 0.000000e+00
1.372477e-01 8.665479e-01 0.000000e+00
1.595632e-01 1.007442e+00 0.000000e+00
1.372477e-01 8.665479e-01 0.000000e+00
1.595632e-01 1.007442e+00 0.000000e+00
1.824112e-01 8.581774e-01 0.000000e+00
2.120699e-01 9.977105e-01 0.000000e+00
1.824112e-01 8.581774e-01 0.000000e+00
2.120699e-01 9.977105e-01 0.000000e+00
2.270748e-01 8.474546e-01 0.000000e+00
2.639954e-01 9.852443e-01 0.000000e+00
2.270748e-01 8.474546e-01 0.000000e+00
2.639954e-01 9.852443e-01 0.000000e+00
2.711159e-01 8.344090e-01 0.000000e+00
3.151973e-01 9.700776e-01 0.000000e+00
2.711159e-01 8.344090e-01 0.000000e+00
3.151973e-01 9.700776e-01 0.000000e+00
3.144140e-01 8.190764e-01 0.000000e+00
3.655353e-01 9.522520e-01 0.000000e+00
3.144140e-01 8.190764e-01 0.000000e+00
3.655353e-01 9.522520e-01 0.000000e+00
3.568502e-01 8.014987e-01 0.000000e+00
4.148714e-01 9.318164e-01 0.000000e+00
3.568502e-01 8.014987e-01 0.000000e+00
4.148714e-01 9.318164e-01 0.000000e+00
3.983084e-01 7.817242e-01 0.000000e+00
4.630703e-01 9.088266e-01 0.000000e+00
3.983084e-01 7.817242e-01 0.000000e+00
4.630703e-01 9.088266e-01 0.000000e+00
4.386748e-01 7.598070e-01 0.000000e+00
5.100000e-01 8.833459e-01 0.000000e+00
4.386748e-01 7.598070e-01 0.000000e+00
5.100000e-01 8.833459e-01 0.000000e+00
4.778388e-01 7.358072e-01 0.000000e+00
5.555318e-01 8.554440e-01 0.000000e+00
4.778388e-01 7.358072e-01 0.000000e+00
5.555318e-01 8.554440e-01 0.000000e+00
5.156931e-01 7.097907e-01 0.000000e+00
5.995409e-01 8.251973e-01 0.000000e+00
5.156931e-01 7.097907e-01 0.000000e+00
5.995409e-01 8.251973e-01 0.000000e+00
5.521340e-01 6.818287e-01 0.000000e+00
6.419068e-01 7.926889e-01 0.000000e+00
5.521340e-01 6.818287e-01 0.000000e+00
6.419068e-01 7.926889e-01 0.000000e+00
5.870614e-01 6.519978e-01 0.000000e+00
6.825132e-01 7.580077e-01 0.000000e+00
5.870614e-01 6.519978e-01 0.000000e+00
6.825132e-01 7.580077e-01 0.000000e+00
6.203798e-01 6.203798e-01 0.000000e+00
7.212489e-01 7.212489e-01 0.000000e+00
6.203798e-01 6.203798e-01 0.000000e+00
7.212489e-01 7.212489e-01 0.000000e+00
6.519978e-01 5.870614e-01 0.000000e+00
7.580077e-01 6.825132e-01 0.000000e+00
6.519978e-01 5.870614e-01 0.000000e+00
7.580077e-01 6.825132e-01 0.000000e+00
6.818287e-01 5.521340e-01 0.000000e+00
7.926889e-01 6.419068e-01 0.000000e+00
6.818287e-01 5.521340e-01 0.000000e+00
7.926889e-01 6.419068e-01 0.000000e+00
7.097907e-01 5.156931e-01 0.000000e+00
8.251973e-01 5.995409e-01 0.000000e+00
7.097907e-01 5.156931e-01 0.000000e+00
8.251973e-01 5.995409e-01 0.000000e+00
7.358072e-01 4.778388e-01 0.000000e+00
8.554440e-01 5.555318e-01 0.000000e+00
7.358072e-01 4.778388e-01 0.000000e+00
8.554440e-01 5.555318e-01 0.000000e+00
7.598070e-01 4.386748e-01 0.000000e+00
8.833459e-01 5.100000e-01 0.000000e+00
7.598070e-01 4.386748e-01 0.000000e+00
8.833459e-01 5.100000e-01 0.000000e+00
7.817242e-01 3.983084e-01 0.000000e+00
9.088266e-01 4.630703e-01 0.000000e+00
7.817242e-01 3.983084e-01 0.000000e+00
9.088266e-01 4.630703e-01 0.000000e+00
8.014987e-01 3.568502e-01 0.000000e+00
9.318164e-01 4.148714e-01 0.000000e+00
8.014987e-01 3.568502e-01 0.000000e+00
9.318164e-01 4.148714e-01 0.000000e+00
8.190764e-01 3.144140e-01 0.000000e+00
9.522520e-01 3.655353e-01 0.000000e+00
8.190764e-01 3.144140e-01 0.000000e+00
9.522520e-01 3.655353e-01 0.000000e+00
8.344090e-01 2.711159e-01 0.000000e+00
9.700776e-01 3.151973e-01 0.000000e+00
8.344090e-01 2.711159e-01 0.000000e+00
9.700776e-01 3.151973e-01 0.000000e+00
8.474546e-01 2.270748e-01 0.000000e+00
9.852443e-01 2.639954e-01 0.000000e+00
8.474546e-01 2.270748e-01 0.000000e+00
9.852443e-01 2.639954e-01 0.000000e+00
8.581774e-01 1.824112e-01 0.000000e+00
9.977105e-01 2.120699e-01 0.000000e+00
8.581774e-01 1.824112e-01 0.000000e+00
9.977105e-01 2.120699e-01 0.000000e+00
8.665479e-01 1.372477e-01 0.000000e+00
1.007442e+00 1.595632e-01 0.000000e+00
8.665479e-01 1.372477e-01 0.000000e+00
1.007442e+00 1.595632e-01 0.000000e+00
8.725433e-01 9.170800e-02 0.000000e+00
1.014412e+00 1.066190e-01 0.000000e+00
8.725433e-01 9.170800e-02 0.000000e+00
1.014412e+00 1.066190e-01 0.000000e+00
8.761472e-01 4.591693e-02 0.000000e+00
1.018602e+00 5.338267e-02 0.000000e+00
8.761472e-01 4.591693e-02 0.000000e+00
1.018602e+00 5.338267e-02 0.000000e+00
8.773495e-01 4.296020e-12 0.000000e+00
1.020000e+00 4.994520e-12 0.000000e+00
</DataArray>
</Points>
<Cells>
<DataArray type="Int32" Name="connectivity" format="ascii">
0 1 3 2
4 5 7 6
8 9 11 10
12 13 15 14
16 17 19 18
20 21 23 22
24 25 27 26
28 29 31 30
32 33 35 34
36 37 39 38
40 41 43 42
44 45 47 46
48 49 51 50
52 53 55 54
56 57 59 58
60 61 63 62
64 65 67 66
68 69 71 70
72 73 75 74
76 77 79 78
80 81 83 82
84 85 87 86
88 89 91 90
92 93 95 94
96 97 99 98
100 101 103 102
104 105 107 106
108 109 111 110
112 113 115 114
116 117 119 118
</DataArray>
<DataArray type="Int32" Name="offsets" format="ascii">
4
8
12
16
20
24
28
32
36
40
44
48
52
56
60
64
68
72
76
80
84
88
92
96
100
104
108
112
116
120
</DataArray>
<DataArray type="UInt8" Name="types" format="ascii">
9
9
9
9
9
9
9
9
9
9
9
9
9
9
9
9
9
9
9
9
9
9
9
9
9
9
9
9
9
9
</DataArray>
</Cells>
<PointData>
<DataArray type="Float32" Name="V1" format="ascii">
1.325703e+00
1.149297e+00
1.325703e+00
1.149297e+00
1.325703e+00
1.149297e+00
1.325703e+00
1.149297e+00
1.325703e+00
1.149297e+00
1.325703e+00
1.149297e+00
1.325703e+00
1.149297e+00
1.325703e+00
1.149297e+00
1.325703e+00
1.149297e+00
1.325703e+00
1.149297e+00
1.325703e+00
1.149297e+00
1.325703e+00
1.149297e+00
1.325703e+00
1.149297e+00
1.325703e+00
1.149297e+00
1.325703e+00
1.149297e+00
1.325703e+00
1.149297e+00
1.325703e+00
1.149297e+00
1.325703e+00
1.149297e+00
1.325703e+00
1.149297e+00
1.325703e+00
1.149297e+00
1.325703e+00
1.149297e+00
1.325703e+00
1.149297e+00
1.325703e+00
1.149297e+00
1.325703e+00
1.149297e+00
1.325703e+00
1.149297e+00
1.325703e+00
1.149297e+00
1.325703e+00
1.149297e+00
1.325703e+00
1.149297e+00
1.325703e+00
1.149297e+00
1.325703e+00
1.149297e+00
1.325703e+00
1.149297e+00
1.325703e+00
1.149297e+00
1.325703e+00
1.149297e+00
1.325703e+00
1.149297e+00
1.325703e+00
1.149297e+00
1.325703e+00
1.149297e+00
1.325703e+00
1.149297e+00
1.325703e+00
1.149297e+00
1.325703e+00
1.149297e+00
1.325703e+00
1.149297e+00
1.325703e+00
1.149297e+00
1.325703e+00
1.149297e+00
1.325703e+00
1.149297e+00
1.325703e+00
1.149297e+00
1.325703e+00
1.149297e+00
1.325703e+00
1.149297e+00
1.325703e+00
1.149297e+00
1.325703e+00
1.149297e+00
1.325703e+00
1.149297e+00
1.325703e+00
1.149297e+00
1.325703e+00
1.149297e+00
1.325703e+00
1.149297e+00
1.325703e+00
1.149297e+00
1.325703e+00
1.149297e+00
1.325703e+00
1.149297e+00
1.325703e+00
1.149297e+00
1.325703e+00
1.149297e+00
1.325703e+00
1.149297e+00
1.325703e+00
1.149297e+00
1.325703e+00
1.149297e+00
</DataArray>
<DataArray type="Float32" Name="V2" format="ascii">
8.773495e-01
1.020000e+00
8.773495e-01
1.020000e+00
8.773495e-01
1.020000e+00
8.773495e-01
1.020000e+00
8.773495e-01
1.020000e+00
8.773495e-01
1.020000e+00
8.773495e-01
1.020000e+00
8.773495e-01
1.020000e+00
8.773495e-01
1.020000e+00
8.773495e-01
1.020000e+00
8.773495e-01
1.020000e+00
8.773495e-01
1.020000e+00
8.773495e-01
1.020000e+00
8.773495e-01
1.020000e+00
8.773495e-01
1.020000e+00
8.773495e-01
1.020000e+00
8.773495e-01
1.020000e+00
8.773495e-01
1.020000e+00
8.773495e-01
1.020000e+00
8.773495e-01
1.020000e+00
8.773495e-01
1.020000e+00
8.773495e-01
1.020000e+00
8.773495e-01
1.020000e+00
8.773495e-01
1.020000e+00
8.773495e-01
1.020000e+00
8.773495e-01
1.020000e+00
8.773495e-01
1.020000e+00
8.773495e-01
1.020000e+00
8.773495e-01
1.020000e+00
8.773495e-01
1.020000e+00
8.773495e-01
1.020000e+00
8.773495e-01
1.020000e+00
8.773495e-01
1.020000e+00
8.773495e-01
1.020000e+00
8.773495e-01
1.020000e+00
8.773495e-01
1.020000e+00
8.773495e-01
1.020000e+00
8.773495e-01
1.020000e+00
8.773495e-01
1.020000e+00
8.773495e-01
1.020000e+00
8.773495e-01
1.020000e+00
8.773495e-01
1.020000e+00
8.773495e-01
1.020000e+00
8.773495e-01
1.020000e+00
8.773495e-01
1.020000e+00
8.773495e-01
1.020000e+00
8.773495e-01
1.020000e+00
8.773495e-01
1.020000e+00
8.773495e-01
1.020000e+00
8.773495e-01
1.020000e+00
8.773495e-01
1.020000e+00
8.773495e-01
1.020000e+00
8.773495e-01
1.020000e+00
8.773495e-01
1.020000e+00
8.773495e-01
1.020000e+00
8.773495e-01
1.020000e+00
8.773495e-01
1.020000e+00
8.773495e-01
1.020000e+00
8.773495e-01
1.020000e+00
8.773495e-01
1.020000e+00
</DataArray>
<DataArray type="Float32" Name="V3" format="ascii">
0.000000e+00
0.000000e+00
6.087000e-13
-1.181600e-12
6.087000e-13
-1.181600e-12
2.915600e-13
-9.494900e-13
2.915600e-13
-9.494900e-13
2.555800e-13
-7.815800e-13
2.555800e-13
-7.815800e-13
2.511900e-13
-6.610000e-13
2.511900e-13
-6.610000e-13
2.494200e-13
-5.848000e-13
2.494200e-13
-5.848000e-13
2.474400e-13
-5.356800e-13
2.474400e-13
-5.356800e-13
2.469100e-13
-5.029500e-13
2.469100e-13
-5.029500e-13
2.484200e-13
-4.808000e-13
2.484200e-13
-4.808000e-13
2.511200e-13
-4.687200e-13
2.511200e-13
-4.687200e-13
2.565700e-13
-4.621500e-13
2.565700e-13
-4.621500e-13
2.639000e-13
-4.611000e-13
2.639000e-13
-4.611000e-13
2.719100e-13
-4.674500e-13
2.719100e-13
-4.674500e-13
2.813600e-13
-4.783300e-13
2.813600e-13
-4.783300e-13
2.924800e-13
-4.943600e-13
2.924800e-13
-4.943600e-13
3.033500e-13
-5.154500e-13
3.033500e-13
-5.154500e-13
3.137100e-13
-5.442000e-13
3.137100e-13
-5.442000e-13
3.212400e-13
-5.824100e-13
3.212400e-13
-5.824100e-13
3.253900e-13
-6.293500e-13
3.253900e-13
-6.293500e-13
3.249000e-13
-6.856500e-13
3.249000e-13
-6.856500e-13
3.178600e-13
-7.531200e-13
3.178600e-13
-7.531200e-13
3.018000e-13
-8.314100e-13
3.018000e-13
-8.314100e-13
2.731400e-13
-9.225000e-13
2.731400e-13
-9.225000e-13
2.285100e-13
-1.025740e-12
2.285100e-13
-1.025740e-12
1.638800e-13
-1.140850e-12
1.638800e-13
-1.140850e-12
7.315000e-14
-1.265660e-12
7.315000e-14
-1.265660e-12
-4.744000e-14
-1.393760e-12
-4.744000e-14
-1.393760e-12
-1.903400e-13
-1.511680e-12
-1.903400e-13
-1.511680e-12
-3.181600e-13
-1.509830e-12
-3.181600e-13
-1.509830e-12
-1.283000e-13
-1.186820e-12
-1.283000e-13
-1.186820e-12
0.000000e+00
0.000000e+00
</DataArray>
<DataArray type="Float32" Name="V4" format="ascii">
8.500000e-01
1.000000e+00
8.500000e-01
1.000000e+00
8.500000e-01
1.000000e+00
8.500000e-01
1.000000e+00
8.500000e-01
1.000000e+00
8.500000e-01
1.000000e+00
8.500000e-01
1.000000e+00
8.500000e-01
1.000000e+00
8.500000e-01
1.000000e+00
8.500000e-01
1.000000e+00
8.500000e-01
1.000000e+00
8.500000e-01
1.000000e+00
8.500000e-01
1.000000e+00
8.500000e-01
1.000000e+00
8.500000e-01
1.000000e+00
8.500000e-01
1.000000e+00
8.500000e-01
1.000000e+00
8.500000e-01
1.000000e+00
8.500000e-01
1.000000e+00
8.500000e-01
1.000000e+00
8.500000e-01
1.000000e+00
8.500000e-01
1.000000e+00
8.500000e-01
1.000000e+00
8.500000e-01
1.000000e+00
8.500000e-01
1.000000e+00
8.500000e-01
1.000000e+00
8.500000e-01
1.000000e+00
8.500000e-01
1.000000e+00
8.500000e-01
1.000000e+00
8.500000e-01
1.000000e+00
8.500000e-01
1.000000e+00
8.500000e-01
1.000000e+00
8.500000e-01
1.000000e+00
8.500000e-01
1.000000e+00
8.500000e-01
1.000000e+00
8.500000e-01
1.000000e+00
8.500000e-01
1.000000e+00
8.500000e-01
1.000000e+00
8.500000e-01
1.000000e+00
8.500000e-01
1.000000e+00
8.500000e-01
1.000000e+00
8.500000e-01
1.000000e+00
8.500000e-01
1.000000e+00
8.500000e-01
1.000000e+00
8.500000e-01
1.000000e+00
8.500000e-01
1.000000e+00
8.500000e-01
1.000000e+00
8.500000e-01
1.000000e+00
8.500000e-01
1.000000e+00
8.500000e-01
1.000000e+00
8.500000e-01
1.000000e+00
8.500000e-01
1.000000e+00
8.500000e-01
1.000000e+00
8.500000e-01
1.000000e+00
8.500000e-01
1.000000e+00
8.500000e-01
1.000000e+00
8.500000e-01
1.000000e+00
8.500000e-01
1.000000e+00
8.500000e-01
1.000000e+00
8.500000e-01
1.000000e+00
</DataArray>
<DataArray type="Float32" Name="V5" format="ascii">
0.000000e+00
0.000000e+00
5.235988e-02
5.235988e-02
5.235988e-02
5.235988e-02
1.047198e-01
1.047198e-01
1.047198e-01
1.047198e-01
1.570796e-01
1.570796e-01
1.570796e-01
1.570796e-01
2.094395e-01
2.094395e-01
2.094395e-01
2.094395e-01
2.617994e-01
2.617994e-01
2.617994e-01
2.617994e-01
3.141593e-01
3.141593e-01
3.141593e-01
3.141593e-01
3.665191e-01
3.665191e-01
3.665191e-01
3.665191e-01
4.188790e-01
4.188790e-01
4.188790e-01
4.188790e-01
4.712389e-01
4.712389e-01
4.712389e-01
4.712389e-01
5.235988e-01
5.235988e-01
5.235988e-01
5.235988e-01
5.759587e-01
5.759587e-01
5.759587e-01
5.759587e-01
6.283185e-01
6.283185e-01
6.283185e-01
6.283185e-01
6.806784e-01
6.806784e-01
6.806784e-01
6.806784e-01
7.330383e-01
7.330383e-01
7.330383e-01
7.330383e-01
7.853982e-01
7.853982e-01
7.853982e-01
7.853982e-01
8.377580e-01
8.377580e-01
8.377580e-01
8.377580e-01
8.901179e-01
8.901179e-01
8.901179e-01
8.901179e-01
9.424778e-01
9.424778e-01
9.424778e-01
9.424778e-01
9.948377e-01
9.948377e-01
9.948377e-01
9.948377e-01
1.047198e+00
1.047198e+00
1.047198e+00
1.047198e+00
1.099557e+00
1.099557e+00
1.099557e+00
1.099557e+00
1.151917e+00
1.151917e+00
1.151917e+00
1.151917e+00
1.204277e+00
1.204277e+00
1.204277e+00
1.204277e+00
1.256637e+00
1.256637e+00
1.256637e+00
1.256637e+00
1.308997e+00
1.308997e+00
1.308997e+00
1.308997e+00
1.361357e+00
1.361357e+00
1.361357e+00
1.361357e+00
1.413717e+00
1.413717e+00
1.413717e+00
1.413717e+00
1.466077e+00
1.466077e+00
1.466077e+00
1.466077e+00
1.518436e+00
1.518436e+00
1.518436e+00
1.518436e+00
1.570796e+00
1.570796e+00
</DataArray>
</PointData>
</Piece></UnstructuredGrid>
</VTKFile>
