<?xml version="1.0"?>
<VTKFile type="UnstructuredGrid" version="0.1" byte_order="LittleEndian" compressor="vtkZLibDataCompressor">
<UnstructuredGrid>
<Piece NumberOfPoints="120" NumberOfCells="30">
<Points>
<DataArray type="Float32" NumberOfComponents="3" format="ascii">
0.000000e+00 3.746555e-01 0.000000e+00
0.000000e+00 4.100000e-01 0.000000e+00
9.993297e-02 3.746983e-01 0.000000e+00
9.993615e-02 4.100000e-01 0.000000e+00
9.993297e-02 3.746983e-01 0.000000e+00
9.993615e-02 4.100000e-01 0.000000e+00
1.998819e-01 3.747568e-01 0.000000e+00
1.998884e-01 4.100000e-01 0.000000e+00
1.998819e-01 3.747568e-01 0.000000e+00
1.998884e-01 4.100000e-01 0.000000e+00
2.998576e-01 3.748532e-01 0.000000e+00
2.998670e-01 4.100000e-01 0.000000e+00
2.998576e-01 3.748532e-01 0.000000e+00
2.998670e-01 4.100000e-01 0.000000e+00
3.998740e-01 3.749881e-01 0.000000e+00
3.998860e-01 4.100000e-01 0.000000e+00
3.998740e-01 3.749881e-01 0.000000e+00
3.998860e-01 4.100000e-01 0.000000e+00
4.999451e-01 3.751612e-01 0.000000e+00
4.999592e-01 4.100000e-01 0.000000e+00
4.999451e-01 3.751612e-01 0.000000e+00
4.999592e-01 4.100000e-01 0.000000e+00
6.000850e-01 3.753723e-01 0.000000e+00
6.001006e-01 4.100000e-01 0.000000e+00
6.000850e-01 3.753723e-01 0.000000e+00
6.001006e-01 4.100000e-01 0.000000e+00
7.003083e-01 3.756210e-01 0.000000e+00
7.003247e-01 4.100000e-01 0.000000e+00
7.003083e-01 3.756210e-01 0.000000e+00
7.003247e-01 4.100000e-01 0.000000e+00
8.006300e-01 3.759069e-01 0.000000e+00
8.006463e-01 4.100000e-01 0.000000e+00
8.006300e-01 3.759069e-01 0.000000e+00
8.006463e-01 4.100000e-01 0.000000e+00
9.010654e-01 3.762294e-01 0.000000e+00
9.010806e-01 4.100000e-01 0.000000e+00
9.010654e-01 3.762294e-01 0.000000e+00
9.010806e-01 4.100000e-01 0.000000e+00
1.001631e+00 3.765882e-01 0.000000e+00
1.001643e+00 4.100000e-01 0.000000e+00
1.001631e+00 3.765882e-01 0.000000e+00
1.001643e+00 4.100000e-01 0.000000e+00
1.102343e+00 3.769827e-01 0.000000e+00
1.102352e+00 4.100000e-01 0.000000e+00
1.102343e+00 3.769827e-01 0.000000e+00
1.102352e+00 4.100000e-01 0.000000e+00
1.203219e+00 3.774122e-01 0.000000e+00
1.203222e+00 4.100000e-01 0.000000e+00
1.203219e+00 3.774122e-01 0.000000e+00
1.203222e+00 4.100000e-01 0.000000e+00
1.304278e+00 3.778760e-01 0.000000e+00
1.304274e+00 4.100000e-01 0.000000e+00
1.304278e+00 3.778760e-01 0.000000e+00
1.304274e+00 4.100000e-01 0.000000e+00
1.405539e+00 3.783733e-01 0.000000e+00
1.405527e+00 4.100000e-01 0.000000e+00
1.405539e+00 3.783733e-01 0.000000e+00
1.405527e+00 4.100000e-01 0.000000e+00
1.507023e+00 3.789031e-01 0.000000e+00
1.507003e+00 4.100000e-01 0.000000e+00
1.507023e+00 3.789031e-01 0.000000e+00
1.507003e+00 4.100000e-01 0.000000e+00
1.608750e+00 3.794641e-01 0.000000e+00
1.608724e+00 4.100000e-01 0.000000e+00
1.608750e+00 3.794641e-01 0.000000e+00
1.608724e+00 4.100000e-01 0.000000e+00
1.710743e+00 3.800541e-01 0.000000e+00
1.710717e+00 4.100000e-01 0.000000e+00
1.710743e+00 3.800541e-01 0.000000e+00
1.710717e+00 4.100000e-01 0.000000e+00
1.813022e+00 3.806697e-01 0.000000e+00
1.813016e+00 4.100000e-01 0.000000e+00
1.813022e+00 3.806697e-01 0.000000e+00
1.813016e+00 4.100000e-01 0.000000e+00
1.915604e+00 3.813051e-01 0.000000e+00
1.915660e+00 4.100000e-01 0.000000e+00
1.915604e+00 3.813051e-01 0.000000e+00
1.915660e+00 4.100000e-01 0.000000e+00
2.018498e+00 3.819514e-01 0.000000e+00
2.018709e+00 4.100000e-01 0.000000e+00
2.018498e+00 3.819514e-01 0.000000e+00
2.018709e+00 4.100000e-01 0.000000e+00
2.121693e+00 3.825974e-01 0.000000e+00
2.122263e+00 4.100000e-01 0.000000e+00
2.121693e+00 3.825974e-01 0.000000e+00
2.122263e+00 4.100000e-01 0.000000e+00
2.225132e+00 3.832397e-01 0.000000e+00
2.226511e+00 4.100000e-01 0.000000e+00
2.225132e+00 3.832397e-01 0.000000e+00
2.226511e+00 4.100000e-01 0.000000e+00
2.328647e+00 3.839106e-01 0.000000e+00
2.331824e+00 4.100000e-01 0.000000e+00
2.328647e+00 3.839106e-01 0.000000e+00
2.331824e+00 4.100000e-01 0.000000e+00
2.431833e+00 3.847177e-01 0.000000e+00
2.439059e+00 4.100000e-01 0.000000e+00
2.431833e+00 3.847177e-01 0.000000e+00
2.439059e+00 4.100000e-01 0.000000e+00
2.534090e+00 3.801975e-01 0.000000e+00
2.544078e+00 4.033941e-01 0.000000e+00
2.534090e+00 3.801975e-01 0.000000e+00
2.544078e+00 4.033941e-01 0.000000e+00
2.628945e+00 3.433291e-01 0.000000e+00
2.642375e+00 3.635089e-01 0.000000e+00
2.628945e+00 3.433291e-01 0.000000e+00
2.642375e+00 3.635089e-01 0.000000e+00
2.708549e+00 2.800535e-01 0.000000e+00
2.725731e+00 2.961771e-01 0.000000e+00
2.708549e+00 2.800535e-01 0.000000e+00
2.725731e+00 2.961771e-01 0.000000e+00
2.768255e+00 1.973951e-01 0.000000e+00
2.788392e+00 2.085218e-01 0.000000e+00
2.768255e+00 1.973951e-01 0.000000e+00
2.788392e+00 2.085218e-01 0.000000e+00
2.805185e+00 1.019003e-01 0.000000e+00
2.827107e+00 1.075477e-01 0.000000e+00
2.805185e+00 1.019003e-01 0.000000e+00
2.827107e+00 1.075477e-01 0.000000e+00
2.817677e+00 1.379701e-11 0.000000e+00
2.840187e+00 1.390723e-11 0.000000e+00
</DataArray>
</Points>
<Cells>
<DataArray type="Int32" Name="connectivity" format="ascii">
0 1 3 2
4 5 7 6
8 9 11 10
12 13 15 14
16 17 19 18
20 21 23 22
24 25 27 26
28 29 31 30
32 33 35 34
36 37 39 38
40 41 43 42
44 45 47 46
48 49 51 50
52 53 55 54
56 57 59 58
60 61 63 62
64 65 67 66
68 69 71 70
72 73 75 74
76 77 79 78
80 81 83 82
84 85 87 86
88 89 91 90
92 93 95 94
96 97 99 98
100 101 103 102
104 105 107 106
108 109 111 110
112 113 115 114
116 117 119 118
</DataArray>
<DataArray type="Int32" Name="offsets" format="ascii">
4
8
12
16
20
24
28
32
36
40
44
48
52
56
60
64
68
72
76
80
84
88
92
96
100
104
108
112
116
120
</DataArray>
<DataArray type="UInt8" Name="types" format="ascii">
9
9
9
9
9
9
9
9
9
9
9
9
9
9
9
9
9
9
9
9
9
9
9
9
9
9
9
9
9
9
</DataArray>
</Cells>
<PointData>
<DataArray type="Float32" Name="V1" format="ascii">
4.390310e+03
1.370703e+03
4.395834e+03
1.376226e+03
4.399707e+03
1.372765e+03
4.414443e+03
1.387500e+03
4.422755e+03
1.381096e+03
4.447294e+03
1.405634e+03
4.460022e+03
1.396088e+03
4.494636e+03
1.430701e+03
4.511895e+03
1.417904e+03
4.556978e+03
1.462986e+03
4.578940e+03
1.446790e+03
4.634999e+03
1.502850e+03
4.661893e+03
1.483076e+03
4.729568e+03
1.550751e+03
4.761685e+03
1.527180e+03
4.841757e+03
1.607252e+03
4.879457e+03
1.579620e+03
4.972873e+03
1.673036e+03
5.016587e+03
1.641028e+03
5.124481e+03
1.748922e+03
5.174727e+03
1.712161e+03
5.298450e+03
1.835884e+03
5.355836e+03
1.793926e+03
5.496993e+03
1.935083e+03
5.562232e+03
1.887402e+03
5.722727e+03
2.047897e+03
5.796646e+03
1.993872e+03
5.978744e+03
2.175970e+03
6.062281e+03
2.114864e+03
6.268687e+03
2.321271e+03
6.362873e+03
2.252212e+03
6.596852e+03
2.486191e+03
6.702740e+03
2.408133e+03
6.968288e+03
2.673682e+03
7.086786e+03
2.585367e+03
7.388898e+03
2.887480e+03
7.520390e+03
2.787416e+03
7.865470e+03
3.132497e+03
8.009059e+03
3.019056e+03
8.405478e+03
3.415475e+03
8.557571e+03
3.287546e+03
9.016139e+03
3.746114e+03
9.168102e+03
3.605782e+03
9.701304e+03
4.138983e+03
9.836249e+03
4.000644e+03
1.045243e+04
4.616828e+03
1.054306e+04
4.535442e+03
1.122318e+04
5.215561e+03
1.106944e+04
5.427925e+03
1.198856e+04
6.347038e+03
1.196935e+04
6.285732e+03
1.278977e+04
7.106157e+03
1.298366e+04
6.978414e+03
1.371324e+04
7.707993e+03
1.395721e+04
7.563308e+03
1.453804e+04
8.144140e+03
1.474183e+04
8.021057e+03
1.511689e+04
8.396115e+03
1.522948e+04
8.326493e+03
1.535915e+04
8.456165e+03
</DataArray>
<DataArray type="Float32" Name="V2" format="ascii">
3.746555e-01
4.100000e-01
3.794149e-01
4.146684e-01
3.794149e-01
4.146684e-01
3.935972e-01
4.286480e-01
3.935972e-01
4.286480e-01
4.171462e-01
4.518618e-01
4.171462e-01
4.518618e-01
4.499322e-01
4.841815e-01
4.499322e-01
4.841815e-01
4.917732e-01
5.254285e-01
4.917732e-01
5.254285e-01
5.424368e-01
5.753745e-01
5.424368e-01
5.753745e-01
6.016405e-01
6.337419e-01
6.016405e-01
6.337419e-01
6.690535e-01
7.002058e-01
6.690535e-01
7.002058e-01
7.442980e-01
7.743947e-01
7.442980e-01
7.743947e-01
8.269504e-01
8.558922e-01
8.269504e-01
8.558922e-01
9.165432e-01
9.442387e-01
9.165432e-01
9.442387e-01
1.012567e+00
1.038933e+00
1.012567e+00
1.038933e+00
1.114473e+00
1.139436e+00
1.114473e+00
1.139436e+00
1.221675e+00
1.245171e+00
1.221675e+00
1.245171e+00
1.333551e+00
1.355525e+00
1.333551e+00
1.355525e+00
1.449445e+00
1.469858e+00
1.449445e+00
1.469858e+00
1.568673e+00
1.587498e+00
1.568673e+00
1.587498e+00
1.690518e+00
1.707752e+00
1.690518e+00
1.707752e+00
1.814234e+00
1.829909e+00
1.814234e+00
1.829909e+00
1.939046e+00
1.953253e+00
1.939046e+00
1.953253e+00
2.064138e+00
2.077087e+00
2.064138e+00
2.077087e+00
2.188637e+00
2.200781e+00
2.188637e+00
2.200781e+00
2.311560e+00
2.323876e+00
2.311560e+00
2.323876e+00
2.431695e+00
2.446380e+00
2.431695e+00
2.446380e+00
2.546146e+00
2.561796e+00
2.546146e+00
2.561796e+00
2.642878e+00
2.660211e+00
2.642878e+00
2.660211e+00
2.719013e+00
2.738505e+00
2.719013e+00
2.738505e+00
2.773723e+00
2.794913e+00
2.773723e+00
2.794913e+00
2.806674e+00
2.828862e+00
2.806674e+00
2.828862e+00
2.817677e+00
2.840187e+00
</DataArray>
<DataArray type="Float32" Name="V3" format="ascii">
0.000000e+00
0.000000e+00
8.018582e-02
7.834144e-02
8.018582e-02
7.834144e-02
1.596142e-01
1.559367e-01
1.596142e-01
1.559367e-01
2.375259e-01
2.320371e-01
2.375259e-01
2.320371e-01
3.131714e-01
3.059038e-01
3.131714e-01
3.059038e-01
3.858110e-01
3.768077e-01
3.858110e-01
3.768077e-01
4.547183e-01
4.440326e-01
4.547183e-01
4.440326e-01
5.191836e-01
5.068786e-01
5.191836e-01
5.068786e-01
5.785168e-01
5.646647e-01
5.785168e-01
5.646647e-01
6.320506e-01
6.167326e-01
6.320506e-01
6.167326e-01
6.791436e-01
6.624487e-01
6.791436e-01
6.624487e-01
7.191829e-01
7.012079e-01
7.191829e-01
7.012079e-01
7.515873e-01
7.324355e-01
7.515873e-01
7.324355e-01
7.758093e-01
7.555903e-01
7.758093e-01
7.555903e-01
7.913379e-01
7.701668e-01
7.913379e-01
7.701668e-01
7.977010e-01
7.756979e-01
7.977010e-01
7.756979e-01
7.944672e-01
7.717568e-01
7.944672e-01
7.717568e-01
7.812480e-01
7.579594e-01
7.812480e-01
7.579594e-01
7.576994e-01
7.339669e-01
7.576994e-01
7.339669e-01
7.235234e-01
6.994881e-01
7.235234e-01
6.994881e-01
6.784694e-01
6.542841e-01
6.784694e-01
6.542841e-01
6.223315e-01
5.981747e-01
6.223315e-01
5.981747e-01
5.549360e-01
5.310501e-01
5.549360e-01
5.310501e-01
4.761010e-01
4.528829e-01
4.761010e-01
4.528829e-01
3.855895e-01
3.637776e-01
3.855895e-01
3.637776e-01
2.886282e-01
2.688070e-01
2.886282e-01
2.688070e-01
2.107618e-01
1.938154e-01
2.107618e-01
1.938154e-01
1.471049e-01
1.338676e-01
1.471049e-01
1.338676e-01
9.304768e-02
8.408680e-02
9.304768e-02
8.408680e-02
4.505144e-02
4.055904e-02
4.505144e-02
4.055904e-02
0.000000e+00
0.000000e+00
</DataArray>
<DataArray type="Float32" Name="V4" format="ascii">
8.500000e-01
1.000000e+00
8.500000e-01
1.000000e+00
8.500000e-01
1.000000e+00
8.500000e-01
1.000000e+00
8.500000e-01
1.000000e+00
8.500000e-01
1.000000e+00
8.500000e-01
1.000000e+00
8.500000e-01
1.000000e+00
8.500000e-01
1.000000e+00
8.500000e-01
1.000000e+00
8.500000e-01
1.000000e+00
8.500000e-01
1.000000e+00
8.500000e-01
1.000000e+00
8.500000e-01
1.000000e+00
8.500000e-01
1.000000e+00
8.500000e-01
1.000000e+00
8.500000e-01
1.000000e+00
8.500000e-01
1.000000e+00
8.500000e-01
1.000000e+00
8.500000e-01
1.000000e+00
8.500000e-01
1.000000e+00
8.500000e-01
1.000000e+00
8.500000e-01
1.000000e+00
8.500000e-01
1.000000e+00
8.500000e-01
1.000000e+00
8.500000e-01
1.000000e+00
8.500000e-01
1.000000e+00
8.500000e-01
1.000000e+00
8.500000e-01
1.000000e+00
8.500000e-01
1.000000e+00
8.500000e-01
1.000000e+00
8.500000e-01
1.000000e+00
8.500000e-01
1.000000e+00
8.500000e-01
1.000000e+00
8.500000e-01
1.000000e+00
8.500000e-01
1.000000e+00
8.500000e-01
1.000000e+00
8.500000e-01
1.000000e+00
8.500000e-01
1.000000e+00
8.500000e-01
1.000000e+00
8.500000e-01
1.000000e+00
8.500000e-01
1.000000e+00
8.500000e-01
1.000000e+00
8.500000e-01
1.000000e+00
8.500000e-01
1.000000e+00
8.500000e-01
1.000000e+00
8.500000e-01
1.000000e+00
8.500000e-01
1.000000e+00
8.500000e-01
1.000000e+00
8.500000e-01
1.000000e+00
8.500000e-01
1.000000e+00
8.500000e-01
1.000000e+00
8.500000e-01
1.000000e+00
8.500000e-01
1.000000e+00
8.500000e-01
1.000000e+00
8.500000e-01
1.000000e+00
8.500000e-01
1.000000e+00
8.500000e-01
1.000000e+00
8.500000e-01
1.000000e+00
8.500000e-01
1.000000e+00
</DataArray>
<DataArray type="Float32" Name="V5" format="ascii">
0.000000e+00
0.000000e+00
5.235988e-02
5.235988e-02
5.235988e-02
5.235988e-02
1.047198e-01
1.047198e-01
1.047198e-01
1.047198e-01
1.570796e-01
1.570796e-01
1.570796e-01
1.570796e-01
2.094395e-01
2.094395e-01
2.094395e-01
2.094395e-01
2.617994e-01
2.617994e-01
2.617994e-01
2.617994e-01
3.141593e-01
3.141593e-01
3.141593e-01
3.141593e-01
3.665191e-01
3.665191e-01
3.665191e-01
3.665191e-01
4.188790e-01
4.188790e-01
4.188790e-01
4.188790e-01
4.712389e-01
4.712389e-01
4.712389e-01
4.712389e-01
5.235988e-01
5.235988e-01
5.235988e-01
5.235988e-01
5.759587e-01
5.759587e-01
5.759587e-01
5.759587e-01
6.283185e-01
6.283185e-01
6.283185e-01
6.283185e-01
6.806784e-01
6.806784e-01
6.806784e-01
6.806784e-01
7.330383e-01
7.330383e-01
7.330383e-01
7.330383e-01
7.853982e-01
7.853982e-01
7.853982e-01
7.853982e-01
8.377580e-01
8.377580e-01
8.377580e-01
8.377580e-01
8.901179e-01
8.901179e-01
8.901179e-01
8.901179e-01
9.424778e-01
9.424778e-01
9.424778e-01
9.424778e-01
9.948377e-01
9.948377e-01
9.948377e-01
9.948377e-01
1.047198e+00
1.047198e+00
1.047198e+00
1.047198e+00
1.099557e+00
1.099557e+00
1.099557e+00
1.099557e+00
1.151917e+00
1.151917e+00
1.151917e+00
1.151917e+00
1.204277e+00
1.204277e+00
1.204277e+00
1.204277e+00
1.256637e+00
1.256637e+00
1.256637e+00
1.256637e+00
1.308997e+00
1.308997e+00
1.308997e+00
1.308997e+00
1.361357e+00
1.361357e+00
1.361357e+00
1.361357e+00
1.413717e+00
1.413717e+00
1.413717e+00
1.413717e+00
1.466077e+00
1.466077e+00
1.466077e+00
1.466077e+00
1.518436e+00
1.518436e+00
1.518436e+00
1.518436e+00
1.570796e+00
1.570796e+00
</DataArray>
</PointData>
</Piece></UnstructuredGrid>
</VTKFile>
