<?xml version="1.0"?>
<VTKFile type="UnstructuredGrid" version="0.1" byte_order="LittleEndian" compressor="vtkZLibDataCompressor">
<UnstructuredGrid>
<Piece NumberOfPoints="120" NumberOfCells="30">
<Points>
<DataArray type="Float32" NumberOfComponents="3" format="ascii">
0.000000e+00 1.024364e+00 0.000000e+00
0.000000e+00 1.130000e+00 0.000000e+00
5.510554e-02 1.024138e+00 0.000000e+00
6.051449e-02 1.130000e+00 0.000000e+00
5.510554e-02 1.024138e+00 0.000000e+00
6.051449e-02 1.130000e+00 0.000000e+00
1.100525e-01 1.023008e+00 0.000000e+00
1.203401e-01 1.129684e+00 0.000000e+00
1.100525e-01 1.023008e+00 0.000000e+00
1.203401e-01 1.129684e+00 0.000000e+00
1.645500e-01 1.018287e+00 0.000000e+00
1.795628e-01 1.124453e+00 0.000000e+00
1.645500e-01 1.018287e+00 0.000000e+00
1.795628e-01 1.124453e+00 0.000000e+00
2.183855e-01 1.010355e+00 0.000000e+00
2.387118e-01 1.115501e+00 0.000000e+00
2.183855e-01 1.010355e+00 0.000000e+00
2.387118e-01 1.115501e+00 0.000000e+00
2.715826e-01 9.991887e-01 0.000000e+00
2.974073e-01 1.103029e+00 0.000000e+00
2.715826e-01 9.991887e-01 0.000000e+00
2.974073e-01 1.103029e+00 0.000000e+00
3.240347e-01 9.849748e-01 0.000000e+00
3.553833e-01 1.087215e+00 0.000000e+00
3.240347e-01 9.849748e-01 0.000000e+00
3.553833e-01 1.087215e+00 0.000000e+00
3.756073e-01 9.678190e-01 0.000000e+00
4.124212e-01 1.068169e+00 0.000000e+00
3.756073e-01 9.678190e-01 0.000000e+00
4.124212e-01 1.068169e+00 0.000000e+00
4.261615e-01 9.478182e-01 0.000000e+00
4.683356e-01 1.045995e+00 0.000000e+00
4.261615e-01 9.478182e-01 0.000000e+00
4.683356e-01 1.045995e+00 0.000000e+00
4.755577e-01 9.250629e-01 0.000000e+00
5.229586e-01 1.020791e+00 0.000000e+00
4.755577e-01 9.250629e-01 0.000000e+00
5.229586e-01 1.020791e+00 0.000000e+00
5.236589e-01 8.996431e-01 0.000000e+00
5.761335e-01 9.926585e-01 0.000000e+00
5.236589e-01 8.996431e-01 0.000000e+00
5.761335e-01 9.926585e-01 0.000000e+00
5.703313e-01 8.716500e-01 0.000000e+00
6.277120e-01 9.616972e-01 0.000000e+00
5.703313e-01 8.716500e-01 0.000000e+00
6.277120e-01 9.616972e-01 0.000000e+00
6.154452e-01 8.411781e-01 0.000000e+00
6.775522e-01 9.280117e-01 0.000000e+00
6.154452e-01 8.411781e-01 0.000000e+00
6.775522e-01 9.280117e-01 0.000000e+00
6.588757e-01 8.083253e-01 0.000000e+00
7.255184e-01 8.917100e-01 0.000000e+00
6.588757e-01 8.083253e-01 0.000000e+00
7.255184e-01 8.917100e-01 0.000000e+00
7.005028e-01 7.731934e-01 0.000000e+00
7.714807e-01 8.529041e-01 0.000000e+00
7.005028e-01 7.731934e-01 0.000000e+00
7.714807e-01 8.529041e-01 0.000000e+00
7.402118e-01 7.358887e-01 0.000000e+00
8.153148e-01 8.117107e-01 0.000000e+00
7.402118e-01 7.358887e-01 0.000000e+00
8.153148e-01 8.117107e-01 0.000000e+00
7.778934e-01 6.965216e-01 0.000000e+00
8.569025e-01 7.682509e-01 0.000000e+00
7.778934e-01 6.965216e-01 0.000000e+00
8.569025e-01 7.682509e-01 0.000000e+00
8.134441e-01 6.552070e-01 0.000000e+00
8.961317e-01 7.226509e-01 0.000000e+00
8.134441e-01 6.552070e-01 0.000000e+00
8.961317e-01 7.226509e-01 0.000000e+00
8.467665e-01 6.120640e-01 0.000000e+00
9.328965e-01 6.750414e-01 0.000000e+00
8.467665e-01 6.120640e-01 0.000000e+00
9.328965e-01 6.750414e-01 0.000000e+00
8.777693e-01 5.672157e-01 0.000000e+00
9.670978e-01 6.255576e-01 0.000000e+00
8.777693e-01 5.672157e-01 0.000000e+00
9.670978e-01 6.255576e-01 0.000000e+00
9.063677e-01 5.207894e-01 0.000000e+00
9.986433e-01 5.743390e-01 0.000000e+00
9.063677e-01 5.207894e-01 0.000000e+00
9.986433e-01 5.743390e-01 0.000000e+00
9.324835e-01 4.729158e-01 0.000000e+00
1.027448e+00 5.215294e-01 0.000000e+00
9.324835e-01 4.729158e-01 0.000000e+00
1.027448e+00 5.215294e-01 0.000000e+00
9.560454e-01 4.237294e-01 0.000000e+00
1.053433e+00 4.672763e-01 0.000000e+00
9.560454e-01 4.237294e-01 0.000000e+00
1.053433e+00 4.672763e-01 0.000000e+00
9.769890e-01 3.733677e-01 0.000000e+00
1.076530e+00 4.117309e-01 0.000000e+00
9.769890e-01 3.733677e-01 0.000000e+00
1.076530e+00 4.117309e-01 0.000000e+00
9.952571e-01 3.219710e-01 0.000000e+00
1.096675e+00 3.550475e-01 0.000000e+00
9.952571e-01 3.219710e-01 0.000000e+00
1.096675e+00 3.550475e-01 0.000000e+00
1.010800e+00 2.696824e-01 0.000000e+00
1.113814e+00 2.973832e-01 0.000000e+00
1.010800e+00 2.696824e-01 0.000000e+00
1.113814e+00 2.973832e-01 0.000000e+00
1.023575e+00 2.166470e-01 0.000000e+00
1.127901e+00 2.388976e-01 0.000000e+00
1.023575e+00 2.166470e-01 0.000000e+00
1.127901e+00 2.388976e-01 0.000000e+00
1.033548e+00 1.630120e-01 0.000000e+00
1.138897e+00 1.797525e-01 0.000000e+00
1.033548e+00 1.630120e-01 0.000000e+00
1.138897e+00 1.797525e-01 0.000000e+00
1.040690e+00 1.089259e-01 0.000000e+00
1.146772e+00 1.201113e-01 0.000000e+00
1.040690e+00 1.089259e-01 0.000000e+00
1.146772e+00 1.201113e-01 0.000000e+00
1.044984e+00 5.453837e-02 0.000000e+00
1.151506e+00 6.013862e-02 0.000000e+00
1.044984e+00 5.453837e-02 0.000000e+00
1.151506e+00 6.013862e-02 0.000000e+00
1.046416e+00 5.123870e-12 0.000000e+00
1.153085e+00 5.646190e-12 0.000000e+00
</DataArray>
</Points>
<Cells>
<DataArray type="Int32" Name="connectivity" format="ascii">
0 1 3 2
4 5 7 6
8 9 11 10
12 13 15 14
16 17 19 18
20 21 23 22
24 25 27 26
28 29 31 30
32 33 35 34
36 37 39 38
40 41 43 42
44 45 47 46
48 49 51 50
52 53 55 54
56 57 59 58
60 61 63 62
64 65 67 66
68 69 71 70
72 73 75 74
76 77 79 78
80 81 83 82
84 85 87 86
88 89 91 90
92 93 95 94
96 97 99 98
100 101 103 102
104 105 107 106
108 109 111 110
112 113 115 114
116 117 119 118
</DataArray>
<DataArray type="Int32" Name="offsets" format="ascii">
4
8
12
16
20
24
28
32
36
40
44
48
52
56
60
64
68
72
76
80
84
88
92
96
100
104
108
112
116
120
</DataArray>
<DataArray type="UInt8" Name="types" format="ascii">
9
9
9
9
9
9
9
9
9
9
9
9
9
9
9
9
9
9
9
9
9
9
9
9
9
9
9
9
9
9
</DataArray>
</Cells>
<PointData>
<DataArray type="Float32" Name="V1" format="ascii">
7.342181e+01
7.202694e+00
7.530146e+01
9.082346e+00
6.853800e+01
1.482521e+01
7.211809e+01
1.840530e+01
6.605180e+01
2.362512e+01
6.721210e+01
2.478542e+01
6.484095e+01
2.616377e+01
6.521950e+01
2.654232e+01
6.402935e+01
2.741006e+01
6.428127e+01
2.766198e+01
6.366928e+01
2.812871e+01
6.386323e+01
2.832266e+01
6.354230e+01
2.856899e+01
6.369650e+01
2.872318e+01
6.354049e+01
2.884350e+01
6.366537e+01
2.896838e+01
6.360213e+01
2.901737e+01
6.370457e+01
2.911981e+01
6.369341e+01
2.912875e+01
6.377828e+01
2.921362e+01
6.379542e+01
2.920077e+01
6.386629e+01
2.927165e+01
6.389782e+01
2.924775e+01
6.395738e+01
2.930731e+01
6.399514e+01
2.927863e+01
6.404546e+01
2.932895e+01
6.408475e+01
2.929908e+01
6.412745e+01
2.934178e+01
6.416564e+01
2.931274e+01
6.420199e+01
2.934909e+01
6.423770e+01
2.932195e+01
6.426873e+01
2.935297e+01
6.430130e+01
2.932822e+01
6.432782e+01
2.935474e+01
6.435705e+01
2.933254e+01
6.437973e+01
2.935523e+01
6.440562e+01
2.933557e+01
6.442502e+01
2.935497e+01
6.444774e+01
2.933773e+01
6.446430e+01
2.935430e+01
6.448405e+01
2.933931e+01
6.449815e+01
2.935341e+01
6.451516e+01
2.934050e+01
6.452710e+01
2.935244e+01
6.454161e+01
2.934143e+01
6.455164e+01
2.935146e+01
6.456387e+01
2.934219e+01
6.457219e+01
2.935051e+01
6.458232e+01
2.934283e+01
6.458911e+01
2.934961e+01
6.459731e+01
2.934340e+01
6.460269e+01
2.934878e+01
6.460909e+01
2.934393e+01
6.461317e+01
2.934802e+01
6.461788e+01
2.934445e+01
6.462074e+01
2.934731e+01
6.462383e+01
2.934497e+01
6.462553e+01
2.934666e+01
6.462706e+01
2.934550e+01
6.462763e+01
2.934606e+01
</DataArray>
<DataArray type="Float32" Name="V2" format="ascii">
1.024364e+00
1.130000e+00
1.025618e+00
1.131618e+00
1.025618e+00
1.131618e+00
1.028908e+00
1.136074e+00
1.028908e+00
1.136074e+00
1.031492e+00
1.138699e+00
1.031492e+00
1.138699e+00
1.033681e+00
1.140756e+00
1.033681e+00
1.140756e+00
1.035433e+00
1.142419e+00
1.035433e+00
1.142419e+00
1.036899e+00
1.143823e+00
1.036899e+00
1.143823e+00
1.038142e+00
1.145021e+00
1.038142e+00
1.145021e+00
1.039210e+00
1.146053e+00
1.039210e+00
1.146053e+00
1.040136e+00
1.146950e+00
1.040136e+00
1.146950e+00
1.040943e+00
1.147734e+00
1.040943e+00
1.147734e+00
1.041652e+00
1.148424e+00
1.041652e+00
1.148424e+00
1.042277e+00
1.149032e+00
1.042277e+00
1.149032e+00
1.042831e+00
1.149572e+00
1.042831e+00
1.149572e+00
1.043323e+00
1.150053e+00
1.043323e+00
1.150053e+00
1.043761e+00
1.150481e+00
1.043761e+00
1.150481e+00
1.044151e+00
1.150863e+00
1.044151e+00
1.150863e+00
1.044500e+00
1.151204e+00
1.044500e+00
1.151204e+00
1.044811e+00
1.151509e+00
1.044811e+00
1.151509e+00
1.045087e+00
1.151780e+00
1.045087e+00
1.151780e+00
1.045332e+00
1.152020e+00
1.045332e+00
1.152020e+00
1.045548e+00
1.152232e+00
1.045548e+00
1.152232e+00
1.045737e+00
1.152418e+00
1.045737e+00
1.152418e+00
1.045901e+00
1.152579e+00
1.045901e+00
1.152579e+00
1.046040e+00
1.152716e+00
1.046040e+00
1.152716e+00
1.046157e+00
1.152830e+00
1.046157e+00
1.152830e+00
1.046251e+00
1.152923e+00
1.046251e+00
1.152923e+00
1.046324e+00
1.152994e+00
1.046324e+00
1.152994e+00
1.046375e+00
1.153045e+00
1.046375e+00
1.153045e+00
1.046406e+00
1.153075e+00
1.046406e+00
1.153075e+00
1.046416e+00
1.153085e+00
</DataArray>
<DataArray type="Float32" Name="V3" format="ascii">
0.000000e+00
0.000000e+00
1.430783e-03
1.291923e-03
1.430783e-03
1.291923e-03
2.516130e-03
1.596716e-03
2.516130e-03
1.596716e-03
3.228849e-03
1.448966e-03
3.228849e-03
1.448966e-03
3.548663e-03
1.569629e-03
3.548663e-03
1.569629e-03
3.719624e-03
1.788576e-03
3.719624e-03
1.788576e-03
3.801337e-03
2.021627e-03
3.801337e-03
2.021627e-03
3.824359e-03
2.230660e-03
3.824359e-03
2.230660e-03
3.805509e-03
2.401372e-03
3.805509e-03
2.401372e-03
3.755267e-03
2.529878e-03
3.755267e-03
2.529878e-03
3.680387e-03
2.617043e-03
3.680387e-03
2.617043e-03
3.585413e-03
2.665754e-03
3.585413e-03
2.665754e-03
3.473522e-03
2.679632e-03
3.473522e-03
2.679632e-03
3.347026e-03
2.662403e-03
3.347026e-03
2.662403e-03
3.207687e-03
2.617613e-03
3.207687e-03
2.617613e-03
3.056903e-03
2.548508e-03
3.056903e-03
2.548508e-03
2.895831e-03
2.458001e-03
2.895831e-03
2.458001e-03
2.725463e-03
2.348680e-03
2.725463e-03
2.348680e-03
2.546678e-03
2.222839e-03
2.546678e-03
2.222839e-03
2.360275e-03
2.082510e-03
2.360275e-03
2.082510e-03
2.166995e-03
1.929506e-03
2.166995e-03
1.929506e-03
1.967540e-03
1.765449e-03
1.967540e-03
1.765449e-03
1.762579e-03
1.591804e-03
1.762579e-03
1.591804e-03
1.552762e-03
1.409907e-03
1.552762e-03
1.409907e-03
1.338721e-03
1.220988e-03
1.338721e-03
1.220988e-03
1.121075e-03
1.026190e-03
1.121075e-03
1.026190e-03
9.004374e-04
8.265869e-04
9.004374e-04
8.265869e-04
6.774120e-04
6.232004e-04
6.774120e-04
6.232004e-04
4.525994e-04
4.170100e-04
4.525994e-04
4.170100e-04
2.265969e-04
2.089661e-04
2.265969e-04
2.089661e-04
0.000000e+00
0.000000e+00
</DataArray>
<DataArray type="Float32" Name="V4" format="ascii">
8.500000e-01
1.000000e+00
8.500000e-01
1.000000e+00
8.500000e-01
1.000000e+00
8.500000e-01
1.000000e+00
8.500000e-01
1.000000e+00
8.500000e-01
1.000000e+00
8.500000e-01
1.000000e+00
8.500000e-01
1.000000e+00
8.500000e-01
1.000000e+00
8.500000e-01
1.000000e+00
8.500000e-01
1.000000e+00
8.500000e-01
1.000000e+00
8.500000e-01
1.000000e+00
8.500000e-01
1.000000e+00
8.500000e-01
1.000000e+00
8.500000e-01
1.000000e+00
8.500000e-01
1.000000e+00
8.500000e-01
1.000000e+00
8.500000e-01
1.000000e+00
8.500000e-01
1.000000e+00
8.500000e-01
1.000000e+00
8.500000e-01
1.000000e+00
8.500000e-01
1.000000e+00
8.500000e-01
1.000000e+00
8.500000e-01
1.000000e+00
8.500000e-01
1.000000e+00
8.500000e-01
1.000000e+00
8.500000e-01
1.000000e+00
8.500000e-01
1.000000e+00
8.500000e-01
1.000000e+00
8.500000e-01
1.000000e+00
8.500000e-01
1.000000e+00
8.500000e-01
1.000000e+00
8.500000e-01
1.000000e+00
8.500000e-01
1.000000e+00
8.500000e-01
1.000000e+00
8.500000e-01
1.000000e+00
8.500000e-01
1.000000e+00
8.500000e-01
1.000000e+00
8.500000e-01
1.000000e+00
8.500000e-01
1.000000e+00
8.500000e-01
1.000000e+00
8.500000e-01
1.000000e+00
8.500000e-01
1.000000e+00
8.500000e-01
1.000000e+00
8.500000e-01
1.000000e+00
8.500000e-01
1.000000e+00
8.500000e-01
1.000000e+00
8.500000e-01
1.000000e+00
8.500000e-01
1.000000e+00
8.500000e-01
1.000000e+00
8.500000e-01
1.000000e+00
8.500000e-01
1.000000e+00
8.500000e-01
1.000000e+00
8.500000e-01
1.000000e+00
8.500000e-01
1.000000e+00
8.500000e-01
1.000000e+00
8.500000e-01
1.000000e+00
8.500000e-01
1.000000e+00
8.500000e-01
1.000000e+00
</DataArray>
<DataArray type="Float32" Name="V5" format="ascii">
0.000000e+00
0.000000e+00
5.235988e-02
5.235988e-02
5.235988e-02
5.235988e-02
1.047198e-01
1.047198e-01
1.047198e-01
1.047198e-01
1.570796e-01
1.570796e-01
1.570796e-01
1.570796e-01
2.094395e-01
2.094395e-01
2.094395e-01
2.094395e-01
2.617994e-01
2.617994e-01
2.617994e-01
2.617994e-01
3.141593e-01
3.141593e-01
3.141593e-01
3.141593e-01
3.665191e-01
3.665191e-01
3.665191e-01
3.665191e-01
4.188790e-01
4.188790e-01
4.188790e-01
4.188790e-01
4.712389e-01
4.712389e-01
4.712389e-01
4.712389e-01
5.235988e-01
5.235988e-01
5.235988e-01
5.235988e-01
5.759587e-01
5.759587e-01
5.759587e-01
5.759587e-01
6.283185e-01
6.283185e-01
6.283185e-01
6.283185e-01
6.806784e-01
6.806784e-01
6.806784e-01
6.806784e-01
7.330383e-01
7.330383e-01
7.330383e-01
7.330383e-01
7.853982e-01
7.853982e-01
7.853982e-01
7.853982e-01
8.377580e-01
8.377580e-01
8.377580e-01
8.377580e-01
8.901179e-01
8.901179e-01
8.901179e-01
8.901179e-01
9.424778e-01
9.424778e-01
9.424778e-01
9.424778e-01
9.948377e-01
9.948377e-01
9.948377e-01
9.948377e-01
1.047198e+00
1.047198e+00
1.047198e+00
1.047198e+00
1.099557e+00
1.099557e+00
1.099557e+00
1.099557e+00
1.151917e+00
1.151917e+00
1.151917e+00
1.151917e+00
1.204277e+00
1.204277e+00
1.204277e+00
1.204277e+00
1.256637e+00
1.256637e+00
1.256637e+00
1.256637e+00
1.308997e+00
1.308997e+00
1.308997e+00
1.308997e+00
1.361357e+00
1.361357e+00
1.361357e+00
1.361357e+00
1.413717e+00
1.413717e+00
1.413717e+00
1.413717e+00
1.466077e+00
1.466077e+00
1.466077e+00
1.466077e+00
1.518436e+00
1.518436e+00
1.518436e+00
1.518436e+00
1.570796e+00
1.570796e+00
</DataArray>
</PointData>
</Piece></UnstructuredGrid>
</VTKFile>
