<?xml version="1.0"?>
<VTKFile type="UnstructuredGrid" version="0.1" byte_order="LittleEndian" compressor="vtkZLibDataCompressor">
<UnstructuredGrid>
<Piece NumberOfPoints="120" NumberOfCells="30">
<Points>
<DataArray type="Float32" NumberOfComponents="3" format="ascii">
0.000000e+00 4.407358e-01 0.000000e+00
0.000000e+00 5.000000e-01 0.000000e+00
7.714991e-02 4.407780e-01 0.000000e+00
7.715648e-02 5.000000e-01 0.000000e+00
7.714991e-02 4.407780e-01 0.000000e+00
7.715648e-02 5.000000e-01 0.000000e+00
1.542995e-01 4.408561e-01 0.000000e+00
1.543117e-01 5.000000e-01 0.000000e+00
1.542995e-01 4.408561e-01 0.000000e+00
1.543117e-01 5.000000e-01 0.000000e+00
2.314449e-01 4.409863e-01 0.000000e+00
2.314629e-01 5.000000e-01 0.000000e+00
2.314449e-01 4.409863e-01 0.000000e+00
2.314629e-01 5.000000e-01 0.000000e+00
3.085845e-01 4.411685e-01 0.000000e+00
3.086082e-01 5.000000e-01 0.000000e+00
3.085845e-01 4.411685e-01 0.000000e+00
3.086082e-01 5.000000e-01 0.000000e+00
3.857164e-01 4.414025e-01 0.000000e+00
3.857458e-01 5.000000e-01 0.000000e+00
3.857164e-01 4.414025e-01 0.000000e+00
3.857458e-01 5.000000e-01 0.000000e+00
4.628389e-01 4.416879e-01 0.000000e+00
4.628739e-01 5.000000e-01 0.000000e+00
4.628389e-01 4.416879e-01 0.000000e+00
4.628739e-01 5.000000e-01 0.000000e+00
5.399502e-01 4.420245e-01 0.000000e+00
5.399908e-01 5.000000e-01 0.000000e+00
5.399502e-01 4.420245e-01 0.000000e+00
5.399908e-01 5.000000e-01 0.000000e+00
6.170489e-01 4.424118e-01 0.000000e+00
6.170952e-01 5.000000e-01 0.000000e+00
6.170489e-01 4.424118e-01 0.000000e+00
6.170952e-01 5.000000e-01 0.000000e+00
6.941332e-01 4.428494e-01 0.000000e+00
6.941858e-01 5.000000e-01 0.000000e+00
6.941332e-01 4.428494e-01 0.000000e+00
6.941858e-01 5.000000e-01 0.000000e+00
7.712018e-01 4.433370e-01 0.000000e+00
7.712622e-01 5.000000e-01 0.000000e+00
7.712018e-01 4.433370e-01 0.000000e+00
7.712622e-01 5.000000e-01 0.000000e+00
8.482530e-01 4.438740e-01 0.000000e+00
8.483246e-01 5.000000e-01 0.000000e+00
8.482530e-01 4.438740e-01 0.000000e+00
8.483246e-01 5.000000e-01 0.000000e+00
9.252848e-01 4.444598e-01 0.000000e+00
9.253747e-01 5.000000e-01 0.000000e+00
9.252848e-01 4.444598e-01 0.000000e+00
9.253747e-01 5.000000e-01 0.000000e+00
1.002294e+00 4.450936e-01 0.000000e+00
1.002417e+00 5.000000e-01 0.000000e+00
1.002294e+00 4.450936e-01 0.000000e+00
1.002417e+00 5.000000e-01 0.000000e+00
1.079275e+00 4.457745e-01 0.000000e+00
1.079460e+00 5.000000e-01 0.000000e+00
1.079275e+00 4.457745e-01 0.000000e+00
1.079460e+00 5.000000e-01 0.000000e+00
1.156218e+00 4.465005e-01 0.000000e+00
1.156524e+00 5.000000e-01 0.000000e+00
1.156218e+00 4.465005e-01 0.000000e+00
1.156524e+00 5.000000e-01 0.000000e+00
1.233098e+00 4.472682e-01 0.000000e+00
1.233644e+00 5.000000e-01 0.000000e+00
1.233098e+00 4.472682e-01 0.000000e+00
1.233644e+00 5.000000e-01 0.000000e+00
1.309872e+00 4.480713e-01 0.000000e+00
1.310891e+00 5.000000e-01 0.000000e+00
1.309872e+00 4.480713e-01 0.000000e+00
1.310891e+00 5.000000e-01 0.000000e+00
1.386443e+00 4.488993e-01 0.000000e+00
1.388407e+00 5.000000e-01 0.000000e+00
1.386443e+00 4.488993e-01 0.000000e+00
1.388407e+00 5.000000e-01 0.000000e+00
1.462607e+00 4.497432e-01 0.000000e+00
1.466472e+00 5.000000e-01 0.000000e+00
1.462607e+00 4.497432e-01 0.000000e+00
1.466472e+00 5.000000e-01 0.000000e+00
1.537893e+00 4.506144e-01 0.000000e+00
1.545609e+00 5.000000e-01 0.000000e+00
1.537893e+00 4.506144e-01 0.000000e+00
1.545609e+00 5.000000e-01 0.000000e+00
1.611709e+00 4.513298e-01 0.000000e+00
1.624920e+00 5.000000e-01 0.000000e+00
1.611709e+00 4.513298e-01 0.000000e+00
1.624920e+00 5.000000e-01 0.000000e+00
1.683703e+00 4.424305e-01 0.000000e+00
1.701033e+00 4.880615e-01 0.000000e+00
1.683703e+00 4.424305e-01 0.000000e+00
1.701033e+00 4.880615e-01 0.000000e+00
1.750883e+00 4.175564e-01 0.000000e+00
1.773811e+00 4.593130e-01 0.000000e+00
1.750883e+00 4.175564e-01 0.000000e+00
1.773811e+00 4.593130e-01 0.000000e+00
1.811567e+00 3.799831e-01 0.000000e+00
1.840186e+00 4.168326e-01 0.000000e+00
1.811567e+00 3.799831e-01 0.000000e+00
1.840186e+00 4.168326e-01 0.000000e+00
1.864512e+00 3.318611e-01 0.000000e+00
1.898073e+00 3.630572e-01 0.000000e+00
1.864512e+00 3.318611e-01 0.000000e+00
1.898073e+00 3.630572e-01 0.000000e+00
1.908802e+00 2.752290e-01 0.000000e+00
1.946295e+00 3.003564e-01 0.000000e+00
1.908802e+00 2.752290e-01 0.000000e+00
1.946295e+00 3.003564e-01 0.000000e+00
1.943788e+00 2.119967e-01 0.000000e+00
1.984199e+00 2.308747e-01 0.000000e+00
1.943788e+00 2.119967e-01 0.000000e+00
1.984199e+00 2.308747e-01 0.000000e+00
1.969038e+00 1.439462e-01 0.000000e+00
2.011436e+00 1.565245e-01 0.000000e+00
1.969038e+00 1.439462e-01 0.000000e+00
2.011436e+00 1.565245e-01 0.000000e+00
1.984283e+00 7.274950e-02 0.000000e+00
2.027832e+00 7.903229e-02 0.000000e+00
1.984283e+00 7.274950e-02 0.000000e+00
2.027832e+00 7.903229e-02 0.000000e+00
1.989380e+00 9.741180e-12 0.000000e+00
2.033304e+00 9.956260e-12 0.000000e+00
</DataArray>
</Points>
<Cells>
<DataArray type="Int32" Name="connectivity" format="ascii">
0 1 3 2
4 5 7 6
8 9 11 10
12 13 15 14
16 17 19 18
20 21 23 22
24 25 27 26
28 29 31 30
32 33 35 34
36 37 39 38
40 41 43 42
44 45 47 46
48 49 51 50
52 53 55 54
56 57 59 58
60 61 63 62
64 65 67 66
68 69 71 70
72 73 75 74
76 77 79 78
80 81 83 82
84 85 87 86
88 89 91 90
92 93 95 94
96 97 99 98
100 101 103 102
104 105 107 106
108 109 111 110
112 113 115 114
116 117 119 118
</DataArray>
<DataArray type="Int32" Name="offsets" format="ascii">
4
8
12
16
20
24
28
32
36
40
44
48
52
56
60
64
68
72
76
80
84
88
92
96
100
104
108
112
116
120
</DataArray>
<DataArray type="UInt8" Name="types" format="ascii">
9
9
9
9
9
9
9
9
9
9
9
9
9
9
9
9
9
9
9
9
9
9
9
9
9
9
9
9
9
9
</DataArray>
</Cells>
<PointData>
<DataArray type="Float32" Name="V1" format="ascii">
1.025440e+03
1.214036e+02
1.026720e+03
1.226836e+02
1.027836e+03
1.218211e+02
1.031299e+03
1.252841e+02
1.033629e+03
1.235899e+02
1.039455e+03
1.294160e+02
1.042971e+03
1.268499e+02
1.051224e+03
1.351024e+02
1.055961e+03
1.316377e+02
1.066735e+03
1.424109e+02
1.072740e+03
1.380122e+02
1.086159e+03
1.514303e+02
1.093493e+03
1.460529e+02
1.109713e+03
1.622738e+02
1.118450e+03
1.558622e+02
1.137669e+03
1.750812e+02
1.147894e+03
1.675694e+02
1.170349e+03
1.900244e+02
1.182165e+03
1.813350e+02
1.208144e+03
2.073135e+02
1.221660e+03
1.973592e+02
1.251507e+03
2.272070e+02
1.266835e+03
2.158947e+02
1.300968e+03
2.500282e+02
1.318198e+03
2.372681e+02
1.357122e+03
2.761927e+02
1.376280e+03
2.619205e+02
1.420618e+03
3.062581e+02
1.441569e+03
2.904826e+02
1.492104e+03
3.410173e+02
1.514348e+03
3.239251e+02
1.572104e+03
3.816806e+02
1.594355e+03
3.638712e+02
1.660718e+03
4.302339e+02
1.680050e+03
4.132847e+02
1.756908e+03
4.901428e+02
1.767113e+03
4.780967e+02
1.856726e+03
5.677094e+02
1.845473e+03
5.712110e+02
1.948930e+03
6.746680e+02
1.877889e+03
7.323519e+02
2.016096e+03
8.705587e+02
1.915224e+03
9.744500e+02
2.051684e+03
1.110910e+03
2.021278e+03
1.123957e+03
2.145346e+03
1.248025e+03
2.163543e+03
1.235966e+03
2.282905e+03
1.355327e+03
2.317703e+03
1.330555e+03
2.427792e+03
1.440644e+03
2.466431e+03
1.411911e+03
2.562501e+03
1.507981e+03
2.598191e+03
1.480821e+03
2.676407e+03
1.559037e+03
2.705432e+03
1.536708e+03
2.763052e+03
1.594328e+03
2.783322e+03
1.578659e+03
2.818558e+03
1.613895e+03
2.828943e+03
1.605854e+03
2.840796e+03
1.617706e+03
</DataArray>
<DataArray type="Float32" Name="V2" format="ascii">
4.407358e-01
5.000000e-01
4.442116e-01
5.033528e-01
4.442116e-01
5.033528e-01
4.545697e-01
5.133909e-01
4.545697e-01
5.133909e-01
4.717630e-01
5.300529e-01
4.717630e-01
5.300529e-01
4.956862e-01
5.532371e-01
4.956862e-01
5.532371e-01
5.261928e-01
5.828013e-01
5.261928e-01
5.828013e-01
5.630952e-01
6.185642e-01
5.630952e-01
6.185642e-01
6.061662e-01
6.603056e-01
6.061662e-01
6.603056e-01
6.551397e-01
7.077680e-01
6.551397e-01
7.077680e-01
7.097116e-01
7.606570e-01
7.097116e-01
7.606570e-01
7.695420e-01
8.186438e-01
7.695420e-01
8.186438e-01
8.342558e-01
8.813660e-01
8.342558e-01
8.813660e-01
9.034443e-01
9.484301e-01
9.034443e-01
9.484301e-01
9.766668e-01
1.019414e+00
9.766668e-01
1.019414e+00
1.053451e+00
1.093872e+00
1.053451e+00
1.093872e+00
1.133293e+00
1.171339e+00
1.133293e+00
1.171339e+00
1.215652e+00
1.251341e+00
1.215652e+00
1.251341e+00
1.299942e+00
1.333414e+00
1.299942e+00
1.333414e+00
1.385513e+00
1.417137e+00
1.385513e+00
1.417137e+00
1.471593e+00
1.502206e+00
1.471593e+00
1.502206e+00
1.557162e+00
1.588537e+00
1.557162e+00
1.588537e+00
1.640942e+00
1.674809e+00
1.640942e+00
1.674809e+00
1.718092e+00
1.752483e+00
1.718092e+00
1.752483e+00
1.784229e+00
1.820599e+00
1.784229e+00
1.820599e+00
1.840324e+00
1.878929e+00
1.840324e+00
1.878929e+00
1.886872e+00
1.927364e+00
1.886872e+00
1.927364e+00
1.924313e+00
1.966212e+00
1.924313e+00
1.966212e+00
1.953020e+00
1.995887e+00
1.953020e+00
1.995887e+00
1.973298e+00
2.016779e+00
1.973298e+00
2.016779e+00
1.985371e+00
2.029189e+00
1.985371e+00
2.029189e+00
1.989380e+00
2.033304e+00
</DataArray>
<DataArray type="Float32" Name="V3" format="ascii">
0.000000e+00
0.000000e+00
5.397565e-02
5.088276e-02
5.397565e-02
5.088276e-02
1.073722e-01
1.012021e-01
1.073722e-01
1.012021e-01
1.596100e-01
1.503960e-01
1.596100e-01
1.503960e-01
2.101171e-01
1.979086e-01
2.101171e-01
1.979086e-01
2.583300e-01
2.431923e-01
2.583300e-01
2.431923e-01
3.036968e-01
2.857107e-01
3.036968e-01
2.857107e-01
3.456796e-01
3.249409e-01
3.456796e-01
3.249409e-01
3.837571e-01
3.603762e-01
3.837571e-01
3.603762e-01
4.174278e-01
3.915289e-01
4.174278e-01
3.915289e-01
4.462119e-01
4.179327e-01
4.462119e-01
4.179327e-01
4.696538e-01
4.391453e-01
4.696538e-01
4.391453e-01
4.873243e-01
4.547512e-01
4.873243e-01
4.547512e-01
4.988223e-01
4.643640e-01
4.988223e-01
4.643640e-01
5.037765e-01
4.676302e-01
5.037765e-01
4.676302e-01
5.018457e-01
4.642325e-01
5.018457e-01
4.642325e-01
4.927189e-01
4.538962e-01
4.927189e-01
4.538962e-01
4.761126e-01
4.363972e-01
4.761126e-01
4.363972e-01
4.517638e-01
4.115766e-01
4.517638e-01
4.115766e-01
4.194065e-01
3.793626e-01
4.194065e-01
3.793626e-01
3.787032e-01
3.397918e-01
3.787032e-01
3.397918e-01
3.295626e-01
2.921949e-01
3.295626e-01
2.921949e-01
2.806432e-01
2.460060e-01
2.806432e-01
2.460060e-01
2.376380e-01
2.068716e-01
2.376380e-01
2.068716e-01
1.984195e-01
1.722173e-01
1.984195e-01
1.722173e-01
1.620180e-01
1.405712e-01
1.620180e-01
1.405712e-01
1.276477e-01
1.108647e-01
1.276477e-01
1.108647e-01
9.468874e-02
8.236480e-02
9.468874e-02
8.236480e-02
6.266282e-02
5.458530e-02
6.266282e-02
5.458530e-02
3.119956e-02
2.720453e-02
3.119956e-02
2.720453e-02
0.000000e+00
0.000000e+00
</DataArray>
<DataArray type="Float32" Name="V4" format="ascii">
8.500000e-01
1.000000e+00
8.500000e-01
1.000000e+00
8.500000e-01
1.000000e+00
8.500000e-01
1.000000e+00
8.500000e-01
1.000000e+00
8.500000e-01
1.000000e+00
8.500000e-01
1.000000e+00
8.500000e-01
1.000000e+00
8.500000e-01
1.000000e+00
8.500000e-01
1.000000e+00
8.500000e-01
1.000000e+00
8.500000e-01
1.000000e+00
8.500000e-01
1.000000e+00
8.500000e-01
1.000000e+00
8.500000e-01
1.000000e+00
8.500000e-01
1.000000e+00
8.500000e-01
1.000000e+00
8.500000e-01
1.000000e+00
8.500000e-01
1.000000e+00
8.500000e-01
1.000000e+00
8.500000e-01
1.000000e+00
8.500000e-01
1.000000e+00
8.500000e-01
1.000000e+00
8.500000e-01
1.000000e+00
8.500000e-01
1.000000e+00
8.500000e-01
1.000000e+00
8.500000e-01
1.000000e+00
8.500000e-01
1.000000e+00
8.500000e-01
1.000000e+00
8.500000e-01
1.000000e+00
8.500000e-01
1.000000e+00
8.500000e-01
1.000000e+00
8.500000e-01
1.000000e+00
8.500000e-01
1.000000e+00
8.500000e-01
1.000000e+00
8.500000e-01
1.000000e+00
8.500000e-01
1.000000e+00
8.500000e-01
1.000000e+00
8.500000e-01
1.000000e+00
8.500000e-01
1.000000e+00
8.500000e-01
1.000000e+00
8.500000e-01
1.000000e+00
8.500000e-01
1.000000e+00
8.500000e-01
1.000000e+00
8.500000e-01
1.000000e+00
8.500000e-01
1.000000e+00
8.500000e-01
1.000000e+00
8.500000e-01
1.000000e+00
8.500000e-01
1.000000e+00
8.500000e-01
1.000000e+00
8.500000e-01
1.000000e+00
8.500000e-01
1.000000e+00
8.500000e-01
1.000000e+00
8.500000e-01
1.000000e+00
8.500000e-01
1.000000e+00
8.500000e-01
1.000000e+00
8.500000e-01
1.000000e+00
8.500000e-01
1.000000e+00
8.500000e-01
1.000000e+00
8.500000e-01
1.000000e+00
</DataArray>
<DataArray type="Float32" Name="V5" format="ascii">
0.000000e+00
0.000000e+00
5.235988e-02
5.235988e-02
5.235988e-02
5.235988e-02
1.047198e-01
1.047198e-01
1.047198e-01
1.047198e-01
1.570796e-01
1.570796e-01
1.570796e-01
1.570796e-01
2.094395e-01
2.094395e-01
2.094395e-01
2.094395e-01
2.617994e-01
2.617994e-01
2.617994e-01
2.617994e-01
3.141593e-01
3.141593e-01
3.141593e-01
3.141593e-01
3.665191e-01
3.665191e-01
3.665191e-01
3.665191e-01
4.188790e-01
4.188790e-01
4.188790e-01
4.188790e-01
4.712389e-01
4.712389e-01
4.712389e-01
4.712389e-01
5.235988e-01
5.235988e-01
5.235988e-01
5.235988e-01
5.759587e-01
5.759587e-01
5.759587e-01
5.759587e-01
6.283185e-01
6.283185e-01
6.283185e-01
6.283185e-01
6.806784e-01
6.806784e-01
6.806784e-01
6.806784e-01
7.330383e-01
7.330383e-01
7.330383e-01
7.330383e-01
7.853982e-01
7.853982e-01
7.853982e-01
7.853982e-01
8.377580e-01
8.377580e-01
8.377580e-01
8.377580e-01
8.901179e-01
8.901179e-01
8.901179e-01
8.901179e-01
9.424778e-01
9.424778e-01
9.424778e-01
9.424778e-01
9.948377e-01
9.948377e-01
9.948377e-01
9.948377e-01
1.047198e+00
1.047198e+00
1.047198e+00
1.047198e+00
1.099557e+00
1.099557e+00
1.099557e+00
1.099557e+00
1.151917e+00
1.151917e+00
1.151917e+00
1.151917e+00
1.204277e+00
1.204277e+00
1.204277e+00
1.204277e+00
1.256637e+00
1.256637e+00
1.256637e+00
1.256637e+00
1.308997e+00
1.308997e+00
1.308997e+00
1.308997e+00
1.361357e+00
1.361357e+00
1.361357e+00
1.361357e+00
1.413717e+00
1.413717e+00
1.413717e+00
1.413717e+00
1.466077e+00
1.466077e+00
1.466077e+00
1.466077e+00
1.518436e+00
1.518436e+00
1.518436e+00
1.518436e+00
1.570796e+00
1.570796e+00
</DataArray>
</PointData>
</Piece></UnstructuredGrid>
</VTKFile>
