<?xml version="1.0"?>
<VTKFile type="UnstructuredGrid" version="0.1" byte_order="LittleEndian" compressor="vtkZLibDataCompressor">
<UnstructuredGrid>
<Piece NumberOfPoints="120" NumberOfCells="30">
<Points>
<DataArray type="Float32" NumberOfComponents="3" format="ascii">
0.000000e+00 7.381397e-01 0.000000e+00
0.000000e+00 8.400000e-01 0.000000e+00
5.882735e-02 7.381877e-01 0.000000e+00
5.888722e-02 8.400000e-01 0.000000e+00
5.882735e-02 7.381877e-01 0.000000e+00
5.888722e-02 8.400000e-01 0.000000e+00
1.176350e-01 7.382880e-01 0.000000e+00
1.177758e-01 8.400000e-01 0.000000e+00
1.176350e-01 7.382880e-01 0.000000e+00
1.177758e-01 8.400000e-01 0.000000e+00
1.763990e-01 7.384584e-01 0.000000e+00
1.766740e-01 8.400000e-01 0.000000e+00
1.763990e-01 7.384584e-01 0.000000e+00
1.766740e-01 8.400000e-01 0.000000e+00
2.350918e-01 7.387035e-01 0.000000e+00
2.355993e-01 8.400000e-01 0.000000e+00
2.350918e-01 7.387035e-01 0.000000e+00
2.355993e-01 8.400000e-01 0.000000e+00
2.936755e-01 7.390306e-01 0.000000e+00
2.945890e-01 8.400000e-01 0.000000e+00
2.936755e-01 7.390306e-01 0.000000e+00
2.945890e-01 8.400000e-01 0.000000e+00
3.520932e-01 7.394496e-01 0.000000e+00
3.537106e-01 8.400000e-01 0.000000e+00
3.520932e-01 7.394496e-01 0.000000e+00
3.537106e-01 8.400000e-01 0.000000e+00
4.102513e-01 7.399681e-01 0.000000e+00
4.130756e-01 8.400000e-01 0.000000e+00
4.102513e-01 7.399681e-01 0.000000e+00
4.130756e-01 8.400000e-01 0.000000e+00
4.679868e-01 7.405762e-01 0.000000e+00
4.728465e-01 8.400000e-01 0.000000e+00
4.679868e-01 7.405762e-01 0.000000e+00
4.728465e-01 8.400000e-01 0.000000e+00
5.250131e-01 7.411838e-01 0.000000e+00
5.332120e-01 8.400000e-01 0.000000e+00
5.250131e-01 7.411838e-01 0.000000e+00
5.332120e-01 8.400000e-01 0.000000e+00
5.809002e-01 7.414467e-01 0.000000e+00
5.941998e-01 8.400000e-01 0.000000e+00
5.809002e-01 7.414467e-01 0.000000e+00
5.941998e-01 8.400000e-01 0.000000e+00
6.356440e-01 7.404623e-01 0.000000e+00
6.545336e-01 8.387577e-01 0.000000e+00
6.356440e-01 7.404623e-01 0.000000e+00
6.545336e-01 8.387577e-01 0.000000e+00
6.888479e-01 7.338978e-01 0.000000e+00
7.140197e-01 8.299725e-01 0.000000e+00
6.888479e-01 7.338978e-01 0.000000e+00
7.140197e-01 8.299725e-01 0.000000e+00
7.401080e-01 7.215004e-01 0.000000e+00
7.727923e-01 8.144372e-01 0.000000e+00
7.401080e-01 7.215004e-01 0.000000e+00
7.727923e-01 8.144372e-01 0.000000e+00
7.893876e-01 7.034667e-01 0.000000e+00
8.298456e-01 7.925857e-01 0.000000e+00
7.893876e-01 7.034667e-01 0.000000e+00
8.298456e-01 7.925857e-01 0.000000e+00
8.364963e-01 6.804029e-01 0.000000e+00
8.844413e-01 7.650971e-01 0.000000e+00
8.364963e-01 6.804029e-01 0.000000e+00
8.844413e-01 7.650971e-01 0.000000e+00
8.812326e-01 6.528072e-01 0.000000e+00
9.361014e-01 7.326082e-01 0.000000e+00
8.812326e-01 6.528072e-01 0.000000e+00
9.361014e-01 7.326082e-01 0.000000e+00
9.234251e-01 6.211577e-01 0.000000e+00
9.845495e-01 6.957321e-01 0.000000e+00
9.234251e-01 6.211577e-01 0.000000e+00
9.845495e-01 6.957321e-01 0.000000e+00
9.629272e-01 5.858899e-01 0.000000e+00
1.029623e+00 6.550147e-01 0.000000e+00
9.629272e-01 5.858899e-01 0.000000e+00
1.029623e+00 6.550147e-01 0.000000e+00
9.996163e-01 5.474032e-01 0.000000e+00
1.071230e+00 6.109361e-01 0.000000e+00
9.996163e-01 5.474032e-01 0.000000e+00
1.071230e+00 6.109361e-01 0.000000e+00
1.033390e+00 5.060634e-01 0.000000e+00
1.109315e+00 5.639171e-01 0.000000e+00
1.033390e+00 5.060634e-01 0.000000e+00
1.109315e+00 5.639171e-01 0.000000e+00
1.064164e+00 4.622068e-01 0.000000e+00
1.143844e+00 5.143295e-01 0.000000e+00
1.064164e+00 4.622068e-01 0.000000e+00
1.143844e+00 5.143295e-01 0.000000e+00
1.091867e+00 4.161438e-01 0.000000e+00
1.174794e+00 4.625057e-01 0.000000e+00
1.091867e+00 4.161438e-01 0.000000e+00
1.174794e+00 4.625057e-01 0.000000e+00
1.116439e+00 3.681638e-01 0.000000e+00
1.202147e+00 4.087479e-01 0.000000e+00
1.116439e+00 3.681638e-01 0.000000e+00
1.202147e+00 4.087479e-01 0.000000e+00
1.137829e+00 3.185383e-01 0.000000e+00
1.225888e+00 3.533350e-01 0.000000e+00
1.137829e+00 3.185383e-01 0.000000e+00
1.225888e+00 3.533350e-01 0.000000e+00
1.155997e+00 2.675247e-01 0.000000e+00
1.246003e+00 2.965283e-01 0.000000e+00
1.155997e+00 2.675247e-01 0.000000e+00
1.246003e+00 2.965283e-01 0.000000e+00
1.170907e+00 2.153695e-01 0.000000e+00
1.262480e+00 2.385762e-01 0.000000e+00
1.170907e+00 2.153695e-01 0.000000e+00
1.262480e+00 2.385762e-01 0.000000e+00
1.182532e+00 1.623103e-01 0.000000e+00
1.275307e+00 1.797175e-01 0.000000e+00
1.182532e+00 1.623103e-01 0.000000e+00
1.275307e+00 1.797175e-01 0.000000e+00
1.190851e+00 1.085784e-01 0.000000e+00
1.284477e+00 1.201842e-01 0.000000e+00
1.190851e+00 1.085784e-01 0.000000e+00
1.284477e+00 1.201842e-01 0.000000e+00
1.195848e+00 5.440034e-02 0.000000e+00
1.289981e+00 6.020357e-02 0.000000e+00
1.195848e+00 5.440034e-02 0.000000e+00
1.289981e+00 6.020357e-02 0.000000e+00
1.197515e+00 5.863740e-12 0.000000e+00
1.291816e+00 6.325490e-12 0.000000e+00
</DataArray>
</Points>
<Cells>
<DataArray type="Int32" Name="connectivity" format="ascii">
0 1 3 2
4 5 7 6
8 9 11 10
12 13 15 14
16 17 19 18
20 21 23 22
24 25 27 26
28 29 31 30
32 33 35 34
36 37 39 38
40 41 43 42
44 45 47 46
48 49 51 50
52 53 55 54
56 57 59 58
60 61 63 62
64 65 67 66
68 69 71 70
72 73 75 74
76 77 79 78
80 81 83 82
84 85 87 86
88 89 91 90
92 93 95 94
96 97 99 98
100 101 103 102
104 105 107 106
108 109 111 110
112 113 115 114
116 117 119 118
</DataArray>
<DataArray type="Int32" Name="offsets" format="ascii">
4
8
12
16
20
24
28
32
36
40
44
48
52
56
60
64
68
72
76
80
84
88
92
96
100
104
108
112
116
120
</DataArray>
<DataArray type="UInt8" Name="types" format="ascii">
9
9
9
9
9
9
9
9
9
9
9
9
9
9
9
9
9
9
9
9
9
9
9
9
9
9
9
9
9
9
</DataArray>
</Cells>
<PointData>
<DataArray type="Float32" Name="V1" format="ascii">
1.337379e+02
-3.115762e+01
1.338811e+02
-3.101443e+01
1.340300e+02
-3.111010e+01
1.344152e+02
-3.072489e+01
1.346948e+02
-3.090707e+01
1.353561e+02
-3.024577e+01
1.356845e+02
-3.047297e+01
1.366406e+02
-2.951691e+01
1.368817e+02
-2.970596e+01
1.381646e+02
-2.842308e+01
1.380679e+02
-2.841620e+01
1.397303e+02
-2.675373e+01
1.388474e+02
-2.625337e+01
1.409737e+02
-2.412710e+01
1.385205e+02
-2.256711e+01
1.412483e+02
-1.983931e+01
1.358850e+02
-1.614161e+01
1.395136e+02
-1.251299e+01
1.289276e+02
-4.545425e+00
1.344536e+02
9.805833e-01
1.154719e+02
1.834648e+01
1.242457e+02
2.712035e+01
1.076261e+02
4.018314e+01
1.130127e+02
4.556975e+01
1.050425e+02
5.087551e+01
1.090009e+02
5.483396e+01
1.055767e+02
5.760055e+01
1.093011e+02
6.132496e+01
1.083833e+02
6.214543e+01
1.119027e+02
6.566490e+01
1.123532e+02
6.531857e+01
1.155960e+02
6.856131e+01
1.167926e+02
6.757459e+01
1.197151e+02
7.049709e+01
1.212670e+02
6.921432e+01
1.238567e+02
7.180406e+01
1.255274e+02
7.043335e+01
1.277941e+02
7.270003e+01
1.294419e+02
7.136169e+01
1.314067e+02
7.332657e+01
1.329507e+02
7.208538e+01
1.346397e+02
7.377435e+01
1.360373e+02
7.266156e+01
1.374766e+02
7.410093e+01
1.387086e+02
7.312827e+01
1.399228e+02
7.434250e+01
1.409836e+02
7.351092e+01
1.419944e+02
7.452166e+01
1.428862e+02
7.382670e+01
1.437119e+02
7.465234e+01
1.444405e+02
7.408733e+01
1.450962e+02
7.474307e+01
1.456685e+02
7.430095e+01
1.461664e+02
7.479887e+01
1.465891e+02
7.447330e+01
1.469383e+02
7.482257e+01
1.472168e+02
7.460845e+01
1.474239e+02
7.481548e+01
1.475621e+02
7.470932e+01
1.476307e+02
7.477791e+01
</DataArray>
<DataArray type="Float32" Name="V2" format="ascii">
7.381397e-01
8.400000e-01
7.402548e-01
8.419307e-01
7.402548e-01
8.419307e-01
7.465398e-01
8.477093e-01
7.465398e-01
8.477093e-01
7.569616e-01
8.572961e-01
7.569616e-01
8.572961e-01
7.714394e-01
8.706278e-01
7.714394e-01
8.706278e-01
7.898576e-01
8.876229e-01
7.898576e-01
8.876229e-01
8.120611e-01
9.081901e-01
8.120611e-01
9.081901e-01
8.378406e-01
9.322406e-01
8.378406e-01
9.322406e-01
8.668973e-01
9.597022e-01
8.668973e-01
9.597022e-01
8.987505e-01
9.905186e-01
8.987505e-01
9.905186e-01
9.325618e-01
1.024561e+00
9.325618e-01
1.024561e+00
9.672005e-01
1.059926e+00
9.672005e-01
1.059926e+00
9.986304e-01
1.091152e+00
9.986304e-01
1.091152e+00
1.026476e+00
1.119271e+00
1.026476e+00
1.119271e+00
1.050981e+00
1.144281e+00
1.050981e+00
1.144281e+00
1.072610e+00
1.166400e+00
1.072610e+00
1.166400e+00
1.091697e+00
1.185870e+00
1.091697e+00
1.185870e+00
1.108543e+00
1.202977e+00
1.108543e+00
1.202977e+00
1.123402e+00
1.217991e+00
1.123402e+00
1.217991e+00
1.136486e+00
1.231149e+00
1.136486e+00
1.231149e+00
1.147974e+00
1.242653e+00
1.147974e+00
1.242653e+00
1.158015e+00
1.252673e+00
1.158015e+00
1.252673e+00
1.166731e+00
1.261346e+00
1.166731e+00
1.261346e+00
1.174223e+00
1.268783e+00
1.174223e+00
1.268783e+00
1.180574e+00
1.275075e+00
1.180574e+00
1.275075e+00
1.185848e+00
1.280294e+00
1.185848e+00
1.280294e+00
1.190098e+00
1.284494e+00
1.190098e+00
1.284494e+00
1.193364e+00
1.287720e+00
1.193364e+00
1.287720e+00
1.195677e+00
1.290003e+00
1.195677e+00
1.290003e+00
1.197057e+00
1.291364e+00
1.197057e+00
1.291364e+00
1.197515e+00
1.291816e+00
</DataArray>
<DataArray type="Float32" Name="V3" format="ascii">
0.000000e+00
0.000000e+00
2.011297e-02
1.484432e-02
2.011297e-02
1.484432e-02
3.981848e-02
2.932672e-02
3.981848e-02
2.932672e-02
5.870694e-02
4.309390e-02
5.870694e-02
4.309390e-02
7.636942e-02
5.580511e-02
7.636942e-02
5.580511e-02
9.239359e-02
6.714308e-02
9.239359e-02
6.714308e-02
1.063581e-01
7.682448e-02
1.063581e-01
7.682448e-02
1.178217e-01
8.461024e-02
1.178217e-01
8.461024e-02
1.263077e-01
9.030801e-02
1.263077e-01
9.030801e-02
1.312997e-01
9.374331e-02
1.312997e-01
9.374331e-02
1.323509e-01
9.459216e-02
1.323509e-01
9.459216e-02
1.298113e-01
9.211786e-02
1.298113e-01
9.211786e-02
1.259154e-01
8.980852e-02
1.259154e-01
8.980852e-02
1.211170e-01
8.803042e-02
1.211170e-01
8.803042e-02
1.159183e-01
8.635211e-02
1.159183e-01
8.635211e-02
1.103747e-01
8.438909e-02
1.103747e-01
8.438909e-02
1.045294e-01
8.194014e-02
1.045294e-01
8.194014e-02
9.840003e-02
7.891163e-02
9.840003e-02
7.891163e-02
9.199953e-02
7.527939e-02
9.199953e-02
7.527939e-02
8.533913e-02
7.105957e-02
8.533913e-02
7.105957e-02
7.843139e-02
6.629086e-02
7.843139e-02
6.629086e-02
7.129121e-02
6.102328e-02
7.129121e-02
6.102328e-02
6.393598e-02
5.531167e-02
6.393598e-02
5.531167e-02
5.638532e-02
4.921185e-02
5.638532e-02
4.921185e-02
4.866069e-02
4.277865e-02
4.866069e-02
4.277865e-02
4.078498e-02
3.606498e-02
4.078498e-02
3.606498e-02
3.278212e-02
2.912159e-02
3.278212e-02
2.912159e-02
2.467681e-02
2.199716e-02
2.467681e-02
2.199716e-02
1.649428e-02
1.473857e-02
1.649428e-02
1.473857e-02
8.260078e-03
7.391331e-03
8.260078e-03
7.391331e-03
0.000000e+00
0.000000e+00
</DataArray>
<DataArray type="Float32" Name="V4" format="ascii">
8.500000e-01
1.000000e+00
8.500000e-01
1.000000e+00
8.500000e-01
1.000000e+00
8.500000e-01
1.000000e+00
8.500000e-01
1.000000e+00
8.500000e-01
1.000000e+00
8.500000e-01
1.000000e+00
8.500000e-01
1.000000e+00
8.500000e-01
1.000000e+00
8.500000e-01
1.000000e+00
8.500000e-01
1.000000e+00
8.500000e-01
1.000000e+00
8.500000e-01
1.000000e+00
8.500000e-01
1.000000e+00
8.500000e-01
1.000000e+00
8.500000e-01
1.000000e+00
8.500000e-01
1.000000e+00
8.500000e-01
1.000000e+00
8.500000e-01
1.000000e+00
8.500000e-01
1.000000e+00
8.500000e-01
1.000000e+00
8.500000e-01
1.000000e+00
8.500000e-01
1.000000e+00
8.500000e-01
1.000000e+00
8.500000e-01
1.000000e+00
8.500000e-01
1.000000e+00
8.500000e-01
1.000000e+00
8.500000e-01
1.000000e+00
8.500000e-01
1.000000e+00
8.500000e-01
1.000000e+00
8.500000e-01
1.000000e+00
8.500000e-01
1.000000e+00
8.500000e-01
1.000000e+00
8.500000e-01
1.000000e+00
8.500000e-01
1.000000e+00
8.500000e-01
1.000000e+00
8.500000e-01
1.000000e+00
8.500000e-01
1.000000e+00
8.500000e-01
1.000000e+00
8.500000e-01
1.000000e+00
8.500000e-01
1.000000e+00
8.500000e-01
1.000000e+00
8.500000e-01
1.000000e+00
8.500000e-01
1.000000e+00
8.500000e-01
1.000000e+00
8.500000e-01
1.000000e+00
8.500000e-01
1.000000e+00
8.500000e-01
1.000000e+00
8.500000e-01
1.000000e+00
8.500000e-01
1.000000e+00
8.500000e-01
1.000000e+00
8.500000e-01
1.000000e+00
8.500000e-01
1.000000e+00
8.500000e-01
1.000000e+00
8.500000e-01
1.000000e+00
8.500000e-01
1.000000e+00
8.500000e-01
1.000000e+00
8.500000e-01
1.000000e+00
8.500000e-01
1.000000e+00
8.500000e-01
1.000000e+00
</DataArray>
<DataArray type="Float32" Name="V5" format="ascii">
0.000000e+00
0.000000e+00
5.235988e-02
5.235988e-02
5.235988e-02
5.235988e-02
1.047198e-01
1.047198e-01
1.047198e-01
1.047198e-01
1.570796e-01
1.570796e-01
1.570796e-01
1.570796e-01
2.094395e-01
2.094395e-01
2.094395e-01
2.094395e-01
2.617994e-01
2.617994e-01
2.617994e-01
2.617994e-01
3.141593e-01
3.141593e-01
3.141593e-01
3.141593e-01
3.665191e-01
3.665191e-01
3.665191e-01
3.665191e-01
4.188790e-01
4.188790e-01
4.188790e-01
4.188790e-01
4.712389e-01
4.712389e-01
4.712389e-01
4.712389e-01
5.235988e-01
5.235988e-01
5.235988e-01
5.235988e-01
5.759587e-01
5.759587e-01
5.759587e-01
5.759587e-01
6.283185e-01
6.283185e-01
6.283185e-01
6.283185e-01
6.806784e-01
6.806784e-01
6.806784e-01
6.806784e-01
7.330383e-01
7.330383e-01
7.330383e-01
7.330383e-01
7.853982e-01
7.853982e-01
7.853982e-01
7.853982e-01
8.377580e-01
8.377580e-01
8.377580e-01
8.377580e-01
8.901179e-01
8.901179e-01
8.901179e-01
8.901179e-01
9.424778e-01
9.424778e-01
9.424778e-01
9.424778e-01
9.948377e-01
9.948377e-01
9.948377e-01
9.948377e-01
1.047198e+00
1.047198e+00
1.047198e+00
1.047198e+00
1.099557e+00
1.099557e+00
1.099557e+00
1.099557e+00
1.151917e+00
1.151917e+00
1.151917e+00
1.151917e+00
1.204277e+00
1.204277e+00
1.204277e+00
1.204277e+00
1.256637e+00
1.256637e+00
1.256637e+00
1.256637e+00
1.308997e+00
1.308997e+00
1.308997e+00
1.308997e+00
1.361357e+00
1.361357e+00
1.361357e+00
1.361357e+00
1.413717e+00
1.413717e+00
1.413717e+00
1.413717e+00
1.466077e+00
1.466077e+00
1.466077e+00
1.466077e+00
1.518436e+00
1.518436e+00
1.518436e+00
1.518436e+00
1.570796e+00
1.570796e+00
</DataArray>
</PointData>
</Piece></UnstructuredGrid>
</VTKFile>
