<?xml version="1.0"?>
<VTKFile type="UnstructuredGrid" version="0.1" byte_order="LittleEndian" compressor="vtkZLibDataCompressor">
<UnstructuredGrid>
<Piece NumberOfPoints="120" NumberOfCells="30">
<Points>
<DataArray type="Float32" NumberOfComponents="3" format="ascii">
0.000000e+00 3.816493e-01 0.000000e+00
0.000000e+00 4.200000e-01 0.000000e+00
9.592843e-02 3.816915e-01 0.000000e+00
9.593264e-02 4.200000e-01 0.000000e+00
9.592843e-02 3.816915e-01 0.000000e+00
9.593264e-02 4.200000e-01 0.000000e+00
1.918702e-01 3.817532e-01 0.000000e+00
1.918785e-01 4.200000e-01 0.000000e+00
1.918702e-01 3.817532e-01 0.000000e+00
1.918785e-01 4.200000e-01 0.000000e+00
2.878338e-01 3.818552e-01 0.000000e+00
2.878459e-01 4.200000e-01 0.000000e+00
2.878338e-01 3.818552e-01 0.000000e+00
2.878459e-01 4.200000e-01 0.000000e+00
3.838307e-01 3.819981e-01 0.000000e+00
3.838463e-01 4.200000e-01 0.000000e+00
3.838307e-01 3.819981e-01 0.000000e+00
3.838463e-01 4.200000e-01 0.000000e+00
4.798723e-01 3.821814e-01 0.000000e+00
4.798910e-01 4.200000e-01 0.000000e+00
4.798723e-01 3.821814e-01 0.000000e+00
4.798910e-01 4.200000e-01 0.000000e+00
5.759704e-01 3.824049e-01 0.000000e+00
5.759916e-01 4.200000e-01 0.000000e+00
5.759704e-01 3.824049e-01 0.000000e+00
5.759916e-01 4.200000e-01 0.000000e+00
6.721369e-01 3.826683e-01 0.000000e+00
6.721599e-01 4.200000e-01 0.000000e+00
6.721369e-01 3.826683e-01 0.000000e+00
6.721599e-01 4.200000e-01 0.000000e+00
7.683841e-01 3.829711e-01 0.000000e+00
7.684081e-01 4.200000e-01 0.000000e+00
7.683841e-01 3.829711e-01 0.000000e+00
7.684081e-01 4.200000e-01 0.000000e+00
8.647250e-01 3.833129e-01 0.000000e+00
8.647490e-01 4.200000e-01 0.000000e+00
8.647250e-01 3.833129e-01 0.000000e+00
8.647490e-01 4.200000e-01 0.000000e+00
9.611729e-01 3.836932e-01 0.000000e+00
9.611958e-01 4.200000e-01 0.000000e+00
9.611729e-01 3.836932e-01 0.000000e+00
9.611958e-01 4.200000e-01 0.000000e+00
1.057742e+00 3.841114e-01 0.000000e+00
1.057762e+00 4.200000e-01 0.000000e+00
1.057742e+00 3.841114e-01 0.000000e+00
1.057762e+00 4.200000e-01 0.000000e+00
1.154447e+00 3.845669e-01 0.000000e+00
1.154463e+00 4.200000e-01 0.000000e+00
1.154447e+00 3.845669e-01 0.000000e+00
1.154463e+00 4.200000e-01 0.000000e+00
1.251303e+00 3.850590e-01 0.000000e+00
1.251315e+00 4.200000e-01 0.000000e+00
1.251303e+00 3.850590e-01 0.000000e+00
1.251315e+00 4.200000e-01 0.000000e+00
1.348327e+00 3.855868e-01 0.000000e+00
1.348333e+00 4.200000e-01 0.000000e+00
1.348327e+00 3.855868e-01 0.000000e+00
1.348333e+00 4.200000e-01 0.000000e+00
1.445536e+00 3.861493e-01 0.000000e+00
1.445538e+00 4.200000e-01 0.000000e+00
1.445536e+00 3.861493e-01 0.000000e+00
1.445538e+00 4.200000e-01 0.000000e+00
1.542947e+00 3.867450e-01 0.000000e+00
1.542951e+00 4.200000e-01 0.000000e+00
1.542947e+00 3.867450e-01 0.000000e+00
1.542951e+00 4.200000e-01 0.000000e+00
1.640578e+00 3.873715e-01 0.000000e+00
1.640596e+00 4.200000e-01 0.000000e+00
1.640578e+00 3.873715e-01 0.000000e+00
1.640596e+00 4.200000e-01 0.000000e+00
1.738444e+00 3.880246e-01 0.000000e+00
1.738507e+00 4.200000e-01 0.000000e+00
1.738444e+00 3.880246e-01 0.000000e+00
1.738507e+00 4.200000e-01 0.000000e+00
1.836553e+00 3.886975e-01 0.000000e+00
1.836728e+00 4.200000e-01 0.000000e+00
1.836553e+00 3.886975e-01 0.000000e+00
1.836728e+00 4.200000e-01 0.000000e+00
1.934899e+00 3.893796e-01 0.000000e+00
1.935331e+00 4.200000e-01 0.000000e+00
1.934899e+00 3.893796e-01 0.000000e+00
1.935331e+00 4.200000e-01 0.000000e+00
2.033445e+00 3.900593e-01 0.000000e+00
2.034445e+00 4.200000e-01 0.000000e+00
2.033445e+00 3.900593e-01 0.000000e+00
2.034445e+00 4.200000e-01 0.000000e+00
2.132078e+00 3.907388e-01 0.000000e+00
2.134320e+00 4.200000e-01 0.000000e+00
2.132078e+00 3.907388e-01 0.000000e+00
2.134320e+00 4.200000e-01 0.000000e+00
2.230515e+00 3.914523e-01 0.000000e+00
2.235400e+00 4.200000e-01 0.000000e+00
2.230515e+00 3.914523e-01 0.000000e+00
2.235400e+00 4.200000e-01 0.000000e+00
2.328273e+00 3.921957e-01 0.000000e+00
2.337618e+00 4.200000e-01 0.000000e+00
2.328273e+00 3.921957e-01 0.000000e+00
2.337618e+00 4.200000e-01 0.000000e+00
2.423999e+00 3.774705e-01 0.000000e+00
2.436046e+00 4.022858e-01 0.000000e+00
2.423999e+00 3.774705e-01 0.000000e+00
2.436046e+00 4.022858e-01 0.000000e+00
2.510170e+00 3.342672e-01 0.000000e+00
2.526122e+00 3.555825e-01 0.000000e+00
2.510170e+00 3.342672e-01 0.000000e+00
2.526122e+00 3.555825e-01 0.000000e+00
2.581452e+00 2.693272e-01 0.000000e+00
2.601185e+00 2.860979e-01 0.000000e+00
2.581452e+00 2.693272e-01 0.000000e+00
2.601185e+00 2.860979e-01 0.000000e+00
2.634493e+00 1.883691e-01 0.000000e+00
2.657080e+00 1.998413e-01 0.000000e+00
2.634493e+00 1.883691e-01 0.000000e+00
2.657080e+00 1.998413e-01 0.000000e+00
2.667136e+00 9.681934e-02 0.000000e+00
2.691431e+00 1.026224e-01 0.000000e+00
2.667136e+00 9.681934e-02 0.000000e+00
2.691431e+00 1.026224e-01 0.000000e+00
2.678150e+00 1.311380e-11 0.000000e+00
2.703007e+00 1.323551e-11 0.000000e+00
</DataArray>
</Points>
<Cells>
<DataArray type="Int32" Name="connectivity" format="ascii">
0 1 3 2
4 5 7 6
8 9 11 10
12 13 15 14
16 17 19 18
20 21 23 22
24 25 27 26
28 29 31 30
32 33 35 34
36 37 39 38
40 41 43 42
44 45 47 46
48 49 51 50
52 53 55 54
56 57 59 58
60 61 63 62
64 65 67 66
68 69 71 70
72 73 75 74
76 77 79 78
80 81 83 82
84 85 87 86
88 89 91 90
92 93 95 94
96 97 99 98
100 101 103 102
104 105 107 106
108 109 111 110
112 113 115 114
116 117 119 118
</DataArray>
<DataArray type="Int32" Name="offsets" format="ascii">
4
8
12
16
20
24
28
32
36
40
44
48
52
56
60
64
68
72
76
80
84
88
92
96
100
104
108
112
116
120
</DataArray>
<DataArray type="UInt8" Name="types" format="ascii">
9
9
9
9
9
9
9
9
9
9
9
9
9
9
9
9
9
9
9
9
9
9
9
9
9
9
9
9
9
9
</DataArray>
</Cells>
<PointData>
<DataArray type="Float32" Name="V1" format="ascii">
3.546278e+03
1.029438e+03
3.550737e+03
1.033897e+03
3.553956e+03
1.031091e+03
3.565898e+03
1.043033e+03
3.572765e+03
1.037791e+03
3.592687e+03
1.057713e+03
3.603174e+03
1.049874e+03
3.631295e+03
1.077996e+03
3.645499e+03
1.067472e+03
3.682140e+03
1.104113e+03
3.700202e+03
1.090785e+03
3.745776e+03
1.136358e+03
3.767885e+03
1.120079e+03
3.822912e+03
1.175106e+03
3.849308e+03
1.155695e+03
3.914426e+03
1.220813e+03
3.945402e+03
1.198055e+03
4.021384e+03
1.274037e+03
4.057294e+03
1.247672e+03
4.145068e+03
1.335445e+03
4.186333e+03
1.305164e+03
4.287002e+03
1.405833e+03
4.334118e+03
1.371269e+03
4.448996e+03
1.486148e+03
4.502539e+03
1.446871e+03
4.633187e+03
1.577518e+03
4.693821e+03
1.533021e+03
4.842095e+03
1.681295e+03
4.910560e+03
1.630980e+03
5.078687e+03
1.799107e+03
5.155768e+03
1.742275e+03
5.346443e+03
1.932950e+03
5.432880e+03
1.868781e+03
5.649426e+03
2.085328e+03
5.745702e+03
2.012877e+03
5.992316e+03
2.259491e+03
6.098204e+03
2.177734e+03
6.380331e+03
2.459861e+03
6.493977e+03
2.367965e+03
6.818799e+03
2.692787e+03
6.935036e+03
2.591214e+03
7.311698e+03
2.967875e+03
7.419162e+03
2.862308e+03
7.857355e+03
3.300501e+03
7.932654e+03
3.213891e+03
8.438055e+03
3.719292e+03
8.395454e+03
3.721551e+03
9.019030e+03
4.345126e+03
8.891390e+03
4.515619e+03
9.550850e+03
5.175079e+03
9.600100e+03
5.130862e+03
1.020675e+04
5.737513e+03
1.038154e+04
5.639400e+03
1.092077e+04
6.178628e+03
1.110897e+04
6.067933e+03
1.153532e+04
6.494274e+03
1.168322e+04
6.402769e+03
1.195662e+04
6.676165e+03
1.203628e+04
6.625320e+03
1.213043e+04
6.719468e+03
</DataArray>
<DataArray type="Float32" Name="V2" format="ascii">
3.816493e-01
4.200000e-01
3.861889e-01
4.244451e-01
3.861889e-01
4.244451e-01
3.997178e-01
4.377560e-01
3.997178e-01
4.377560e-01
4.221811e-01
4.598581e-01
4.221811e-01
4.598581e-01
4.534534e-01
4.906281e-01
4.534534e-01
4.906281e-01
4.933590e-01
5.298938e-01
4.933590e-01
5.298938e-01
5.416733e-01
5.774349e-01
5.416733e-01
5.774349e-01
5.981239e-01
6.329843e-01
5.981239e-01
6.329843e-01
6.623915e-01
6.962288e-01
6.623915e-01
6.962288e-01
7.341113e-01
7.668106e-01
7.341113e-01
7.668106e-01
8.128745e-01
8.443286e-01
8.128745e-01
8.443286e-01
8.982304e-01
9.283403e-01
8.982304e-01
9.283403e-01
9.896878e-01
1.018364e+00
9.896878e-01
1.018364e+00
1.086717e+00
1.113879e+00
1.086717e+00
1.113879e+00
1.188753e+00
1.214332e+00
1.188753e+00
1.214332e+00
1.295197e+00
1.319135e+00
1.295197e+00
1.319135e+00
1.405416e+00
1.427671e+00
1.405416e+00
1.427671e+00
1.518749e+00
1.539297e+00
1.518749e+00
1.539297e+00
1.634506e+00
1.653351e+00
1.634506e+00
1.653351e+00
1.751962e+00
1.769158e+00
1.751962e+00
1.769158e+00
1.870361e+00
1.886046e+00
1.870361e+00
1.886046e+00
1.988896e+00
2.003380e+00
1.988896e+00
2.003380e+00
2.106678e+00
2.120628e+00
2.106678e+00
2.120628e+00
2.222649e+00
2.237441e+00
2.222649e+00
2.237441e+00
2.335515e+00
2.352994e+00
2.335515e+00
2.352994e+00
2.439100e+00
2.457159e+00
2.439100e+00
2.457159e+00
2.524815e+00
2.544850e+00
2.524815e+00
2.544850e+00
2.591802e+00
2.613916e+00
2.591802e+00
2.613916e+00
2.639751e+00
2.663414e+00
2.639751e+00
2.663414e+00
2.668548e+00
2.693113e+00
2.668548e+00
2.693113e+00
2.678150e+00
2.703007e+00
</DataArray>
<DataArray type="Float32" Name="V3" format="ascii">
0.000000e+00
0.000000e+00
7.582077e-02
7.382006e-02
7.582077e-02
7.382006e-02
1.509150e-01
1.469254e-01
1.509150e-01
1.469254e-01
2.245548e-01
2.185996e-01
2.245548e-01
2.185996e-01
2.960212e-01
2.881354e-01
2.960212e-01
2.881354e-01
3.646053e-01
3.548351e-01
3.646053e-01
3.548351e-01
4.296108e-01
4.180134e-01
4.296108e-01
4.180134e-01
4.903578e-01
4.770007e-01
4.903578e-01
4.770007e-01
5.461855e-01
5.311464e-01
5.461855e-01
5.311464e-01
5.964552e-01
5.798210e-01
5.964552e-01
5.798210e-01
6.405536e-01
6.224200e-01
6.405536e-01
6.224200e-01
6.778949e-01
6.583657e-01
6.778949e-01
6.583657e-01
7.079242e-01
6.871107e-01
7.079242e-01
6.871107e-01
7.301194e-01
7.081396e-01
7.301194e-01
7.081396e-01
7.439941e-01
7.209722e-01
7.439941e-01
7.209722e-01
7.490992e-01
7.251651e-01
7.490992e-01
7.251651e-01
7.450255e-01
7.203148e-01
7.450255e-01
7.203148e-01
7.314051e-01
7.060594e-01
7.314051e-01
7.060594e-01
7.079131e-01
6.820815e-01
7.079131e-01
6.820815e-01
6.742691e-01
6.481120e-01
6.742691e-01
6.481120e-01
6.302368e-01
6.039347e-01
6.302368e-01
6.039347e-01
5.756191e-01
5.493961e-01
5.756191e-01
5.493961e-01
5.102367e-01
4.844171e-01
5.102367e-01
4.844171e-01
4.338928e-01
4.089921e-01
4.338928e-01
4.089921e-01
3.464758e-01
3.229199e-01
3.464758e-01
3.229199e-01
2.627686e-01
2.419168e-01
2.627686e-01
2.419168e-01
1.949310e-01
1.773980e-01
1.949310e-01
1.773980e-01
1.378167e-01
1.243394e-01
1.378167e-01
1.243394e-01
8.804232e-02
7.899399e-02
8.804232e-02
7.899399e-02
4.290048e-02
3.837682e-02
4.290048e-02
3.837682e-02
0.000000e+00
0.000000e+00
</DataArray>
<DataArray type="Float32" Name="V4" format="ascii">
8.500000e-01
1.000000e+00
8.500000e-01
1.000000e+00
8.500000e-01
1.000000e+00
8.500000e-01
1.000000e+00
8.500000e-01
1.000000e+00
8.500000e-01
1.000000e+00
8.500000e-01
1.000000e+00
8.500000e-01
1.000000e+00
8.500000e-01
1.000000e+00
8.500000e-01
1.000000e+00
8.500000e-01
1.000000e+00
8.500000e-01
1.000000e+00
8.500000e-01
1.000000e+00
8.500000e-01
1.000000e+00
8.500000e-01
1.000000e+00
8.500000e-01
1.000000e+00
8.500000e-01
1.000000e+00
8.500000e-01
1.000000e+00
8.500000e-01
1.000000e+00
8.500000e-01
1.000000e+00
8.500000e-01
1.000000e+00
8.500000e-01
1.000000e+00
8.500000e-01
1.000000e+00
8.500000e-01
1.000000e+00
8.500000e-01
1.000000e+00
8.500000e-01
1.000000e+00
8.500000e-01
1.000000e+00
8.500000e-01
1.000000e+00
8.500000e-01
1.000000e+00
8.500000e-01
1.000000e+00
8.500000e-01
1.000000e+00
8.500000e-01
1.000000e+00
8.500000e-01
1.000000e+00
8.500000e-01
1.000000e+00
8.500000e-01
1.000000e+00
8.500000e-01
1.000000e+00
8.500000e-01
1.000000e+00
8.500000e-01
1.000000e+00
8.500000e-01
1.000000e+00
8.500000e-01
1.000000e+00
8.500000e-01
1.000000e+00
8.500000e-01
1.000000e+00
8.500000e-01
1.000000e+00
8.500000e-01
1.000000e+00
8.500000e-01
1.000000e+00
8.500000e-01
1.000000e+00
8.500000e-01
1.000000e+00
8.500000e-01
1.000000e+00
8.500000e-01
1.000000e+00
8.500000e-01
1.000000e+00
8.500000e-01
1.000000e+00
8.500000e-01
1.000000e+00
8.500000e-01
1.000000e+00
8.500000e-01
1.000000e+00
8.500000e-01
1.000000e+00
8.500000e-01
1.000000e+00
8.500000e-01
1.000000e+00
8.500000e-01
1.000000e+00
8.500000e-01
1.000000e+00
8.500000e-01
1.000000e+00
</DataArray>
<DataArray type="Float32" Name="V5" format="ascii">
0.000000e+00
0.000000e+00
5.235988e-02
5.235988e-02
5.235988e-02
5.235988e-02
1.047198e-01
1.047198e-01
1.047198e-01
1.047198e-01
1.570796e-01
1.570796e-01
1.570796e-01
1.570796e-01
2.094395e-01
2.094395e-01
2.094395e-01
2.094395e-01
2.617994e-01
2.617994e-01
2.617994e-01
2.617994e-01
3.141593e-01
3.141593e-01
3.141593e-01
3.141593e-01
3.665191e-01
3.665191e-01
3.665191e-01
3.665191e-01
4.188790e-01
4.188790e-01
4.188790e-01
4.188790e-01
4.712389e-01
4.712389e-01
4.712389e-01
4.712389e-01
5.235988e-01
5.235988e-01
5.235988e-01
5.235988e-01
5.759587e-01
5.759587e-01
5.759587e-01
5.759587e-01
6.283185e-01
6.283185e-01
6.283185e-01
6.283185e-01
6.806784e-01
6.806784e-01
6.806784e-01
6.806784e-01
7.330383e-01
7.330383e-01
7.330383e-01
7.330383e-01
7.853982e-01
7.853982e-01
7.853982e-01
7.853982e-01
8.377580e-01
8.377580e-01
8.377580e-01
8.377580e-01
8.901179e-01
8.901179e-01
8.901179e-01
8.901179e-01
9.424778e-01
9.424778e-01
9.424778e-01
9.424778e-01
9.948377e-01
9.948377e-01
9.948377e-01
9.948377e-01
1.047198e+00
1.047198e+00
1.047198e+00
1.047198e+00
1.099557e+00
1.099557e+00
1.099557e+00
1.099557e+00
1.151917e+00
1.151917e+00
1.151917e+00
1.151917e+00
1.204277e+00
1.204277e+00
1.204277e+00
1.204277e+00
1.256637e+00
1.256637e+00
1.256637e+00
1.256637e+00
1.308997e+00
1.308997e+00
1.308997e+00
1.308997e+00
1.361357e+00
1.361357e+00
1.361357e+00
1.361357e+00
1.413717e+00
1.413717e+00
1.413717e+00
1.413717e+00
1.466077e+00
1.466077e+00
1.466077e+00
1.466077e+00
1.518436e+00
1.518436e+00
1.518436e+00
1.518436e+00
1.570796e+00
1.570796e+00
</DataArray>
</PointData>
</Piece></UnstructuredGrid>
</VTKFile>
