<?xml version="1.0"?>
<VTKFile type="UnstructuredGrid" version="0.1" byte_order="LittleEndian" compressor="vtkZLibDataCompressor">
<UnstructuredGrid>
<Piece NumberOfPoints="120" NumberOfCells="30">
<Points>
<DataArray type="Float32" NumberOfComponents="3" format="ascii">
0.000000e+00 6.982662e-01 0.000000e+00
0.000000e+00 8.000000e-01 0.000000e+00
5.894002e-02 6.983206e-01 0.000000e+00
5.883910e-02 8.000000e-01 0.000000e+00
5.894002e-02 6.983206e-01 0.000000e+00
5.883910e-02 8.000000e-01 0.000000e+00
1.178786e-01 6.984571e-01 0.000000e+00
1.176785e-01 8.000000e-01 0.000000e+00
1.178786e-01 6.984571e-01 0.000000e+00
1.176785e-01 8.000000e-01 0.000000e+00
1.768113e-01 6.986858e-01 0.000000e+00
1.765213e-01 8.000000e-01 0.000000e+00
1.768113e-01 6.986858e-01 0.000000e+00
1.765213e-01 8.000000e-01 0.000000e+00
2.357331e-01 6.990083e-01 0.000000e+00
2.353735e-01 8.000000e-01 0.000000e+00
2.357331e-01 6.990083e-01 0.000000e+00
2.353735e-01 8.000000e-01 0.000000e+00
2.946344e-01 6.994287e-01 0.000000e+00
2.942502e-01 8.000000e-01 0.000000e+00
2.946344e-01 6.994287e-01 0.000000e+00
2.942502e-01 8.000000e-01 0.000000e+00
3.534963e-01 6.999542e-01 0.000000e+00
3.531837e-01 8.000000e-01 0.000000e+00
3.534963e-01 6.999542e-01 0.000000e+00
3.531837e-01 8.000000e-01 0.000000e+00
4.122803e-01 7.005963e-01 0.000000e+00
4.122387e-01 8.000000e-01 0.000000e+00
4.122803e-01 7.005963e-01 0.000000e+00
4.122387e-01 8.000000e-01 0.000000e+00
4.709085e-01 7.013675e-01 0.000000e+00
4.715346e-01 8.000000e-01 0.000000e+00
4.709085e-01 7.013675e-01 0.000000e+00
4.715346e-01 8.000000e-01 0.000000e+00
5.292243e-01 7.022633e-01 0.000000e+00
5.312705e-01 8.000000e-01 0.000000e+00
5.292243e-01 7.022633e-01 0.000000e+00
5.312705e-01 8.000000e-01 0.000000e+00
5.869231e-01 7.032001e-01 0.000000e+00
5.917174e-01 8.000000e-01 0.000000e+00
5.869231e-01 7.032001e-01 0.000000e+00
5.917174e-01 8.000000e-01 0.000000e+00
6.434495e-01 7.037529e-01 0.000000e+00
6.530705e-01 8.000000e-01 0.000000e+00
6.434495e-01 7.037529e-01 0.000000e+00
6.530705e-01 8.000000e-01 0.000000e+00
6.986478e-01 7.034256e-01 0.000000e+00
7.143623e-01 7.999497e-01 0.000000e+00
6.986478e-01 7.034256e-01 0.000000e+00
7.143623e-01 7.999497e-01 0.000000e+00
7.526014e-01 6.977580e-01 0.000000e+00
7.745673e-01 7.923191e-01 0.000000e+00
7.526014e-01 6.977580e-01 0.000000e+00
7.745673e-01 7.923191e-01 0.000000e+00
8.043710e-01 6.861941e-01 0.000000e+00
8.341946e-01 7.773482e-01 0.000000e+00
8.043710e-01 6.861941e-01 0.000000e+00
8.341946e-01 7.773482e-01 0.000000e+00
8.541587e-01 6.686577e-01 0.000000e+00
8.921774e-01 7.556118e-01 0.000000e+00
8.541587e-01 6.686577e-01 0.000000e+00
8.921774e-01 7.556118e-01 0.000000e+00
9.017686e-01 6.456716e-01 0.000000e+00
9.476075e-01 7.277589e-01 0.000000e+00
9.017686e-01 6.456716e-01 0.000000e+00
9.476075e-01 7.277589e-01 0.000000e+00
9.469440e-01 6.177464e-01 0.000000e+00
9.999043e-01 6.944870e-01 0.000000e+00
9.469440e-01 6.177464e-01 0.000000e+00
9.999043e-01 6.944870e-01 0.000000e+00
9.894450e-01 5.853944e-01 0.000000e+00
1.048728e+00 6.564779e-01 0.000000e+00
9.894450e-01 5.853944e-01 0.000000e+00
1.048728e+00 6.564779e-01 0.000000e+00
1.029066e+00 5.491034e-01 0.000000e+00
1.093882e+00 6.143476e-01 0.000000e+00
1.029066e+00 5.491034e-01 0.000000e+00
1.093882e+00 6.143476e-01 0.000000e+00
1.065639e+00 5.093303e-01 0.000000e+00
1.135254e+00 5.686400e-01 0.000000e+00
1.065639e+00 5.093303e-01 0.000000e+00
1.135254e+00 5.686400e-01 0.000000e+00
1.099028e+00 4.664976e-01 0.000000e+00
1.172777e+00 5.198326e-01 0.000000e+00
1.099028e+00 4.664976e-01 0.000000e+00
1.172777e+00 5.198326e-01 0.000000e+00
1.129127e+00 4.209958e-01 0.000000e+00
1.206412e+00 4.683479e-01 0.000000e+00
1.129127e+00 4.209958e-01 0.000000e+00
1.206412e+00 4.683479e-01 0.000000e+00
1.155850e+00 3.731858e-01 0.000000e+00
1.236133e+00 4.145641e-01 0.000000e+00
1.155850e+00 3.731858e-01 0.000000e+00
1.236133e+00 4.145641e-01 0.000000e+00
1.179128e+00 3.234041e-01 0.000000e+00
1.261923e+00 3.588253e-01 0.000000e+00
1.179128e+00 3.234041e-01 0.000000e+00
1.261923e+00 3.588253e-01 0.000000e+00
1.198908e+00 2.719659e-01 0.000000e+00
1.283767e+00 3.014492e-01 0.000000e+00
1.198908e+00 2.719659e-01 0.000000e+00
1.283767e+00 3.014492e-01 0.000000e+00
1.215145e+00 2.191704e-01 0.000000e+00
1.301656e+00 2.427337e-01 0.000000e+00
1.215145e+00 2.191704e-01 0.000000e+00
1.301656e+00 2.427337e-01 0.000000e+00
1.227807e+00 1.653033e-01 0.000000e+00
1.315579e+00 1.829619e-01 0.000000e+00
1.227807e+00 1.653033e-01 0.000000e+00
1.315579e+00 1.829619e-01 0.000000e+00
1.236869e+00 1.106407e-01 0.000000e+00
1.325530e+00 1.224065e-01 0.000000e+00
1.236869e+00 1.106407e-01 0.000000e+00
1.325530e+00 1.224065e-01 0.000000e+00
1.242313e+00 5.545144e-02 0.000000e+00
1.331502e+00 6.133233e-02 0.000000e+00
1.242313e+00 5.545144e-02 0.000000e+00
1.331502e+00 6.133233e-02 0.000000e+00
1.244129e+00 6.091990e-12 0.000000e+00
1.333493e+00 6.529570e-12 0.000000e+00
</DataArray>
</Points>
<Cells>
<DataArray type="Int32" Name="connectivity" format="ascii">
0 1 3 2
4 5 7 6
8 9 11 10
12 13 15 14
16 17 19 18
20 21 23 22
24 25 27 26
28 29 31 30
32 33 35 34
36 37 39 38
40 41 43 42
44 45 47 46
48 49 51 50
52 53 55 54
56 57 59 58
60 61 63 62
64 65 67 66
68 69 71 70
72 73 75 74
76 77 79 78
80 81 83 82
84 85 87 86
88 89 91 90
92 93 95 94
96 97 99 98
100 101 103 102
104 105 107 106
108 109 111 110
112 113 115 114
116 117 119 118
</DataArray>
<DataArray type="Int32" Name="offsets" format="ascii">
4
8
12
16
20
24
28
32
36
40
44
48
52
56
60
64
68
72
76
80
84
88
92
96
100
104
108
112
116
120
</DataArray>
<DataArray type="UInt8" Name="types" format="ascii">
9
9
9
9
9
9
9
9
9
9
9
9
9
9
9
9
9
9
9
9
9
9
9
9
9
9
9
9
9
9
</DataArray>
</Cells>
<PointData>
<DataArray type="Float32" Name="V1" format="ascii">
1.487384e+01
-5.713123e-01
1.489499e+01
-5.501692e-01
1.492240e+01
-5.691787e-01
1.497852e+01
-5.130616e-01
1.503478e+01
-5.512326e-01
1.512959e+01
-4.564199e-01
1.521233e+01
-5.134784e-01
1.534659e+01
-3.792116e-01
1.545279e+01
-4.532560e-01
1.562773e+01
-2.783162e-01
1.574922e+01
-3.642342e-01
1.596693e+01
-1.465253e-01
1.608415e+01
-2.319677e-01
1.634866e+01
3.253820e-02
1.641823e+01
-2.446300e-02
1.673816e+01
2.954696e-01
1.667016e+01
3.273093e-01
1.706512e+01
7.222707e-01
1.668515e+01
9.694479e-01
1.720158e+01
1.485882e+00
1.619740e+01
2.189698e+00
1.698321e+01
2.975514e+00
1.474484e+01
4.808116e+00
1.608912e+01
6.152397e+00
1.372003e+01
8.301304e+00
1.459759e+01
9.178859e+00
1.361165e+01
9.821826e+00
1.423886e+01
1.044904e+01
1.390442e+01
1.072445e+01
1.451391e+01
1.133393e+01
1.450389e+01
1.134854e+01
1.508925e+01
1.193391e+01
1.524465e+01
1.180683e+01
1.579061e+01
1.235280e+01
1.602728e+01
1.215702e+01
1.652521e+01
1.265495e+01
1.679380e+01
1.243390e+01
1.724037e+01
1.288047e+01
1.751240e+01
1.265870e+01
1.790771e+01
1.305402e+01
1.816699e+01
1.284482e+01
1.851299e+01
1.319082e+01
1.875074e+01
1.300089e+01
1.905023e+01
1.330038e+01
1.926208e+01
1.313262e+01
1.951812e+01
1.338866e+01
1.970230e+01
1.324393e+01
1.991783e+01
1.345947e+01
2.007398e+01
1.333755e+01
2.025171e+01
1.351528e+01
2.038022e+01
1.341547e+01
2.052245e+01
1.355770e+01
2.062402e+01
1.347915e+01
2.073267e+01
1.358780e+01
2.080805e+01
1.352968e+01
2.088460e+01
1.360624e+01
2.093445e+01
1.356789e+01
2.097996e+01
1.361340e+01
2.100476e+01
1.359434e+01
2.101986e+01
1.360944e+01
</DataArray>
<DataArray type="Float32" Name="V2" format="ascii">
6.982662e-01
8.000000e-01
7.004483e-01
8.019830e-01
7.004483e-01
8.019830e-01
7.069526e-01
8.079183e-01
7.069526e-01
8.079183e-01
7.177432e-01
8.177647e-01
7.177432e-01
8.177647e-01
7.327450e-01
8.314550e-01
7.327450e-01
8.314550e-01
7.518532e-01
8.488982e-01
7.518532e-01
8.488982e-01
7.749324e-01
8.699850e-01
7.749324e-01
8.699850e-01
8.018111e-01
8.945975e-01
8.018111e-01
8.945975e-01
8.322669e-01
9.226268e-01
8.322669e-01
9.226268e-01
8.659840e-01
9.539970e-01
8.659840e-01
9.539970e-01
9.024507e-01
9.886790e-01
9.024507e-01
9.886790e-01
9.406646e-01
1.026624e+00
9.406646e-01
1.026624e+00
9.797382e-01
1.067065e+00
9.797382e-01
1.067065e+00
1.015887e+00
1.103199e+00
1.015887e+00
1.103199e+00
1.048171e+00
1.135867e+00
1.048171e+00
1.135867e+00
1.076794e+00
1.165163e+00
1.076794e+00
1.165163e+00
1.102183e+00
1.191175e+00
1.102183e+00
1.191175e+00
1.124674e+00
1.214126e+00
1.124674e+00
1.214126e+00
1.144564e+00
1.234307e+00
1.144564e+00
1.234307e+00
1.162111e+00
1.252005e+00
1.162111e+00
1.252005e+00
1.177535e+00
1.267479e+00
1.177535e+00
1.267479e+00
1.191027e+00
1.280951e+00
1.191027e+00
1.280951e+00
1.202743e+00
1.292606e+00
1.202743e+00
1.292606e+00
1.212817e+00
1.302596e+00
1.212817e+00
1.302596e+00
1.221355e+00
1.311043e+00
1.221355e+00
1.311043e+00
1.228446e+00
1.318045e+00
1.228446e+00
1.318045e+00
1.234159e+00
1.323679e+00
1.234159e+00
1.323679e+00
1.238550e+00
1.328004e+00
1.238550e+00
1.328004e+00
1.241658e+00
1.331063e+00
1.241658e+00
1.331063e+00
1.243513e+00
1.332887e+00
1.243513e+00
1.332887e+00
1.244129e+00
1.333493e+00
</DataArray>
<DataArray type="Float32" Name="V3" format="ascii">
0.000000e+00
0.000000e+00
2.231197e-02
1.688970e-02
2.231197e-02
1.688970e-02
4.422423e-02
3.341108e-02
4.422423e-02
3.341108e-02
6.533596e-02
4.920045e-02
6.533596e-02
4.920045e-02
8.524980e-02
6.390071e-02
8.524980e-02
6.390071e-02
1.035696e-01
7.716868e-02
1.035696e-01
7.716868e-02
1.198972e-01
8.868411e-02
1.198972e-01
8.868411e-02
1.338256e-01
9.816360e-02
1.338256e-01
9.816360e-02
1.449245e-01
1.053790e-01
1.449245e-01
1.053790e-01
1.527215e-01
1.101731e-01
1.527215e-01
1.101731e-01
1.566903e-01
1.124423e-01
1.566903e-01
1.124423e-01
1.563509e-01
1.119998e-01
1.563509e-01
1.119998e-01
1.517547e-01
1.077326e-01
1.517547e-01
1.077326e-01
1.457678e-01
1.033293e-01
1.457678e-01
1.033293e-01
1.386107e-01
9.977993e-02
1.386107e-01
9.977993e-02
1.311690e-01
9.656643e-02
1.311690e-01
9.656643e-02
1.235735e-01
9.324287e-02
1.235735e-01
9.324287e-02
1.158521e-01
8.954236e-02
1.158521e-01
8.954236e-02
1.079872e-01
8.532526e-02
1.079872e-01
8.532526e-02
9.995263e-02
8.053587e-02
9.995263e-02
8.053587e-02
9.172643e-02
7.517030e-02
9.172643e-02
7.517030e-02
8.329598e-02
6.925527e-02
8.329598e-02
6.925527e-02
7.465863e-02
6.283469e-02
7.465863e-02
6.283469e-02
6.582055e-02
5.596140e-02
6.582055e-02
5.596140e-02
5.679510e-02
4.869236e-02
5.679510e-02
4.869236e-02
4.760118e-02
4.108586e-02
4.760118e-02
4.108586e-02
3.826186e-02
3.320011e-02
3.826186e-02
3.320011e-02
2.880320e-02
2.509254e-02
2.880320e-02
2.509254e-02
1.925343e-02
1.681969e-02
1.925343e-02
1.681969e-02
9.642190e-03
8.437172e-03
9.642190e-03
8.437172e-03
0.000000e+00
0.000000e+00
</DataArray>
<DataArray type="Float32" Name="V4" format="ascii">
8.500000e-01
1.000000e+00
8.500000e-01
1.000000e+00
8.500000e-01
1.000000e+00
8.500000e-01
1.000000e+00
8.500000e-01
1.000000e+00
8.500000e-01
1.000000e+00
8.500000e-01
1.000000e+00
8.500000e-01
1.000000e+00
8.500000e-01
1.000000e+00
8.500000e-01
1.000000e+00
8.500000e-01
1.000000e+00
8.500000e-01
1.000000e+00
8.500000e-01
1.000000e+00
8.500000e-01
1.000000e+00
8.500000e-01
1.000000e+00
8.500000e-01
1.000000e+00
8.500000e-01
1.000000e+00
8.500000e-01
1.000000e+00
8.500000e-01
1.000000e+00
8.500000e-01
1.000000e+00
8.500000e-01
1.000000e+00
8.500000e-01
1.000000e+00
8.500000e-01
1.000000e+00
8.500000e-01
1.000000e+00
8.500000e-01
1.000000e+00
8.500000e-01
1.000000e+00
8.500000e-01
1.000000e+00
8.500000e-01
1.000000e+00
8.500000e-01
1.000000e+00
8.500000e-01
1.000000e+00
8.500000e-01
1.000000e+00
8.500000e-01
1.000000e+00
8.500000e-01
1.000000e+00
8.500000e-01
1.000000e+00
8.500000e-01
1.000000e+00
8.500000e-01
1.000000e+00
8.500000e-01
1.000000e+00
8.500000e-01
1.000000e+00
8.500000e-01
1.000000e+00
8.500000e-01
1.000000e+00
8.500000e-01
1.000000e+00
8.500000e-01
1.000000e+00
8.500000e-01
1.000000e+00
8.500000e-01
1.000000e+00
8.500000e-01
1.000000e+00
8.500000e-01
1.000000e+00
8.500000e-01
1.000000e+00
8.500000e-01
1.000000e+00
8.500000e-01
1.000000e+00
8.500000e-01
1.000000e+00
8.500000e-01
1.000000e+00
8.500000e-01
1.000000e+00
8.500000e-01
1.000000e+00
8.500000e-01
1.000000e+00
8.500000e-01
1.000000e+00
8.500000e-01
1.000000e+00
8.500000e-01
1.000000e+00
8.500000e-01
1.000000e+00
8.500000e-01
1.000000e+00
8.500000e-01
1.000000e+00
</DataArray>
<DataArray type="Float32" Name="V5" format="ascii">
0.000000e+00
0.000000e+00
5.235988e-02
5.235988e-02
5.235988e-02
5.235988e-02
1.047198e-01
1.047198e-01
1.047198e-01
1.047198e-01
1.570796e-01
1.570796e-01
1.570796e-01
1.570796e-01
2.094395e-01
2.094395e-01
2.094395e-01
2.094395e-01
2.617994e-01
2.617994e-01
2.617994e-01
2.617994e-01
3.141593e-01
3.141593e-01
3.141593e-01
3.141593e-01
3.665191e-01
3.665191e-01
3.665191e-01
3.665191e-01
4.188790e-01
4.188790e-01
4.188790e-01
4.188790e-01
4.712389e-01
4.712389e-01
4.712389e-01
4.712389e-01
5.235988e-01
5.235988e-01
5.235988e-01
5.235988e-01
5.759587e-01
5.759587e-01
5.759587e-01
5.759587e-01
6.283185e-01
6.283185e-01
6.283185e-01
6.283185e-01
6.806784e-01
6.806784e-01
6.806784e-01
6.806784e-01
7.330383e-01
7.330383e-01
7.330383e-01
7.330383e-01
7.853982e-01
7.853982e-01
7.853982e-01
7.853982e-01
8.377580e-01
8.377580e-01
8.377580e-01
8.377580e-01
8.901179e-01
8.901179e-01
8.901179e-01
8.901179e-01
9.424778e-01
9.424778e-01
9.424778e-01
9.424778e-01
9.948377e-01
9.948377e-01
9.948377e-01
9.948377e-01
1.047198e+00
1.047198e+00
1.047198e+00
1.047198e+00
1.099557e+00
1.099557e+00
1.099557e+00
1.099557e+00
1.151917e+00
1.151917e+00
1.151917e+00
1.151917e+00
1.204277e+00
1.204277e+00
1.204277e+00
1.204277e+00
1.256637e+00
1.256637e+00
1.256637e+00
1.256637e+00
1.308997e+00
1.308997e+00
1.308997e+00
1.308997e+00
1.361357e+00
1.361357e+00
1.361357e+00
1.361357e+00
1.413717e+00
1.413717e+00
1.413717e+00
1.413717e+00
1.466077e+00
1.466077e+00
1.466077e+00
1.466077e+00
1.518436e+00
1.518436e+00
1.518436e+00
1.518436e+00
1.570796e+00
1.570796e+00
</DataArray>
</PointData>
</Piece></UnstructuredGrid>
</VTKFile>
