<?xml version="1.0"?>
<VTKFile type="UnstructuredGrid" version="0.1" byte_order="LittleEndian" compressor="vtkZLibDataCompressor">
<UnstructuredGrid>
<Piece NumberOfPoints="120" NumberOfCells="30">
<Points>
<DataArray type="Float32" NumberOfComponents="3" format="ascii">
0.000000e+00 4.892428e-01 0.000000e+00
0.000000e+00 5.600000e-01 0.000000e+00
7.062817e-02 4.892845e-01 0.000000e+00
7.058100e-02 5.600000e-01 0.000000e+00
7.062817e-02 4.892845e-01 0.000000e+00
7.058100e-02 5.600000e-01 0.000000e+00
1.412485e-01 4.893632e-01 0.000000e+00
1.411532e-01 5.600000e-01 0.000000e+00
1.412485e-01 4.893632e-01 0.000000e+00
1.411532e-01 5.600000e-01 0.000000e+00
2.118499e-01 4.894943e-01 0.000000e+00
2.117074e-01 5.600000e-01 0.000000e+00
2.118499e-01 4.894943e-01 0.000000e+00
2.117074e-01 5.600000e-01 0.000000e+00
2.824227e-01 4.896772e-01 0.000000e+00
2.822344e-01 5.600000e-01 0.000000e+00
2.824227e-01 4.896772e-01 0.000000e+00
2.822344e-01 5.600000e-01 0.000000e+00
3.529570e-01 4.899113e-01 0.000000e+00
3.527245e-01 5.600000e-01 0.000000e+00
3.529570e-01 4.899113e-01 0.000000e+00
3.527245e-01 5.600000e-01 0.000000e+00
4.234418e-01 4.901957e-01 0.000000e+00
4.231682e-01 5.600000e-01 0.000000e+00
4.234418e-01 4.901957e-01 0.000000e+00
4.231682e-01 5.600000e-01 0.000000e+00
4.938656e-01 4.905294e-01 0.000000e+00
4.935554e-01 5.600000e-01 0.000000e+00
4.938656e-01 4.905294e-01 0.000000e+00
4.935554e-01 5.600000e-01 0.000000e+00
5.642155e-01 4.909114e-01 0.000000e+00
5.638764e-01 5.600000e-01 0.000000e+00
5.642155e-01 4.909114e-01 0.000000e+00
5.638764e-01 5.600000e-01 0.000000e+00
6.344771e-01 4.913402e-01 0.000000e+00
6.341218e-01 5.600000e-01 0.000000e+00
6.344771e-01 4.913402e-01 0.000000e+00
6.341218e-01 5.600000e-01 0.000000e+00
7.046334e-01 4.918146e-01 0.000000e+00
7.042839e-01 5.600000e-01 0.000000e+00
7.046334e-01 4.918146e-01 0.000000e+00
7.042839e-01 5.600000e-01 0.000000e+00
7.746637e-01 4.923332e-01 0.000000e+00
7.743587e-01 5.600000e-01 0.000000e+00
7.746637e-01 4.923332e-01 0.000000e+00
7.743587e-01 5.600000e-01 0.000000e+00
8.445414e-01 4.928947e-01 0.000000e+00
8.443496e-01 5.600000e-01 0.000000e+00
8.445414e-01 4.928947e-01 0.000000e+00
8.443496e-01 5.600000e-01 0.000000e+00
9.142296e-01 4.934975e-01 0.000000e+00
9.142743e-01 5.600000e-01 0.000000e+00
9.142296e-01 4.934975e-01 0.000000e+00
9.142743e-01 5.600000e-01 0.000000e+00
9.836739e-01 4.941400e-01 0.000000e+00
9.841776e-01 5.600000e-01 0.000000e+00
9.836739e-01 4.941400e-01 0.000000e+00
9.841776e-01 5.600000e-01 0.000000e+00
1.052787e+00 4.948195e-01 0.000000e+00
1.054153e+00 5.600000e-01 0.000000e+00
1.052787e+00 4.948195e-01 0.000000e+00
1.054153e+00 5.600000e-01 0.000000e+00
1.121419e+00 4.955312e-01 0.000000e+00
1.124382e+00 5.600000e-01 0.000000e+00
1.121419e+00 4.955312e-01 0.000000e+00
1.124382e+00 5.600000e-01 0.000000e+00
1.189288e+00 4.962620e-01 0.000000e+00
1.195178e+00 5.600000e-01 0.000000e+00
1.189288e+00 4.962620e-01 0.000000e+00
1.195178e+00 5.600000e-01 0.000000e+00
1.255825e+00 4.969247e-01 0.000000e+00
1.266926e+00 5.600000e-01 0.000000e+00
1.255825e+00 4.969247e-01 0.000000e+00
1.266926e+00 5.600000e-01 0.000000e+00
1.320770e+00 4.968511e-01 0.000000e+00
1.337587e+00 5.592011e-01 0.000000e+00
1.320770e+00 4.968511e-01 0.000000e+00
1.337587e+00 5.592011e-01 0.000000e+00
1.383520e+00 4.866038e-01 0.000000e+00
1.405589e+00 5.457956e-01 0.000000e+00
1.383520e+00 4.866038e-01 0.000000e+00
1.405589e+00 5.457956e-01 0.000000e+00
1.442093e+00 4.649063e-01 0.000000e+00
1.470814e+00 5.201186e-01 0.000000e+00
1.442093e+00 4.649063e-01 0.000000e+00
1.470814e+00 5.201186e-01 0.000000e+00
1.495696e+00 4.337422e-01 0.000000e+00
1.531106e+00 4.839912e-01 0.000000e+00
1.495696e+00 4.337422e-01 0.000000e+00
1.531106e+00 4.839912e-01 0.000000e+00
1.543723e+00 3.946770e-01 0.000000e+00
1.585139e+00 4.392232e-01 0.000000e+00
1.543723e+00 3.946770e-01 0.000000e+00
1.585139e+00 4.392232e-01 0.000000e+00
1.585765e+00 3.491139e-01 0.000000e+00
1.632236e+00 3.875068e-01 0.000000e+00
1.585765e+00 3.491139e-01 0.000000e+00
1.632236e+00 3.875068e-01 0.000000e+00
1.621562e+00 2.982940e-01 0.000000e+00
1.672102e+00 3.303108e-01 0.000000e+00
1.621562e+00 2.982940e-01 0.000000e+00
1.672102e+00 3.303108e-01 0.000000e+00
1.650958e+00 2.433141e-01 0.000000e+00
1.704649e+00 2.688797e-01 0.000000e+00
1.650958e+00 2.433141e-01 0.000000e+00
1.704649e+00 2.688797e-01 0.000000e+00
1.673868e+00 1.851493e-01 0.000000e+00
1.729885e+00 2.042690e-01 0.000000e+00
1.673868e+00 1.851493e-01 0.000000e+00
1.729885e+00 2.042690e-01 0.000000e+00
1.690248e+00 1.246782e-01 0.000000e+00
1.747859e+00 1.373900e-01 0.000000e+00
1.690248e+00 1.246782e-01 0.000000e+00
1.747859e+00 1.373900e-01 0.000000e+00
1.700081e+00 6.270812e-02 0.000000e+00
1.758619e+00 6.905201e-02 0.000000e+00
1.700081e+00 6.270812e-02 0.000000e+00
1.758619e+00 6.905201e-02 0.000000e+00
1.703359e+00 8.340650e-12 0.000000e+00
1.762201e+00 8.628770e-12 0.000000e+00
</DataArray>
</Points>
<Cells>
<DataArray type="Int32" Name="connectivity" format="ascii">
0 1 3 2
4 5 7 6
8 9 11 10
12 13 15 14
16 17 19 18
20 21 23 22
24 25 27 26
28 29 31 30
32 33 35 34
36 37 39 38
40 41 43 42
44 45 47 46
48 49 51 50
52 53 55 54
56 57 59 58
60 61 63 62
64 65 67 66
68 69 71 70
72 73 75 74
76 77 79 78
80 81 83 82
84 85 87 86
88 89 91 90
92 93 95 94
96 97 99 98
100 101 103 102
104 105 107 106
108 109 111 110
112 113 115 114
116 117 119 118
</DataArray>
<DataArray type="Int32" Name="offsets" format="ascii">
4
8
12
16
20
24
28
32
36
40
44
48
52
56
60
64
68
72
76
80
84
88
92
96
100
104
108
112
116
120
</DataArray>
<DataArray type="UInt8" Name="types" format="ascii">
9
9
9
9
9
9
9
9
9
9
9
9
9
9
9
9
9
9
9
9
9
9
9
9
9
9
9
9
9
9
</DataArray>
</Cells>
<PointData>
<DataArray type="Float32" Name="V1" format="ascii">
6.330006e+01
-1.254767e+00
6.336791e+01
-1.186918e+00
6.348341e+01
-1.259768e+00
6.367631e+01
-1.066861e+00
6.390969e+01
-1.216556e+00
6.423680e+01
-8.894453e-01
6.458792e+01
-1.117638e+00
6.505260e+01
-6.529624e-01
6.552518e+01
-9.618628e-01
6.613292e+01
-3.541296e-01
6.673166e+01
-7.468464e-01
6.748991e+01
1.140498e-02
6.822042e+01
-4.689973e-01
6.913885e+01
4.494333e-01
7.000726e+01
-1.231213e-01
7.109810e+01
9.677122e-01
7.211043e+01
2.982845e-01
7.338900e+01
1.576849e+00
7.454961e+01
8.063300e-01
7.603518e+01
2.291899e+00
7.734381e+01
1.418077e+00
7.906092e+01
3.135186e+00
8.050683e+01
2.160920e+00
8.248745e+01
4.141533e+00
8.403812e+01
3.080810e+00
8.632522e+01
5.367911e+00
8.790457e+01
4.258144e+00
9.055802e+01
6.911594e+00
9.200521e+01
5.839250e+00
9.511023e+01
8.944269e+00
9.610361e+01
8.101565e+00
9.977802e+01
1.177597e+01
9.970146e+01
1.159529e+01
1.040846e+02
1.597846e+01
1.017828e+02
1.748123e+01
1.070309e+02
2.272941e+01
9.967295e+01
2.941934e+01
1.073502e+02
3.709658e+01
1.003124e+02
4.290148e+01
1.064720e+02
4.906102e+01
1.045507e+02
5.007832e+01
1.102671e+02
5.579481e+01
1.111340e+02
5.517308e+01
1.166219e+02
6.066094e+01
1.187518e+02
5.907824e+01
1.238948e+02
6.422122e+01
1.265049e+02
6.221813e+01
1.311503e+02
6.686355e+01
1.338003e+02
6.480315e+01
1.378330e+02
6.883585e+01
1.402656e+02
6.693969e+01
1.436141e+02
7.028819e+01
1.456767e+02
6.868406e+01
1.483017e+02
7.130904e+01
1.499042e+02
7.006736e+01
1.517863e+02
7.194951e+01
1.528770e+02
7.110728e+01
1.540082e+02
7.223840e+01
1.545595e+02
7.181368e+01
1.549367e+02
7.219092e+01
</DataArray>
<DataArray type="Float32" Name="V2" format="ascii">
4.892428e-01
5.600000e-01
4.923104e-01
5.629265e-01
4.923104e-01
5.629265e-01
5.014469e-01
5.716868e-01
5.014469e-01
5.716868e-01
5.166084e-01
5.862238e-01
5.166084e-01
5.862238e-01
5.376955e-01
6.064425e-01
5.376955e-01
6.064425e-01
5.645699e-01
6.322103e-01
5.645699e-01
6.322103e-01
5.970545e-01
6.633578e-01
5.970545e-01
6.633578e-01
6.349343e-01
6.996795e-01
6.349343e-01
6.996795e-01
6.779570e-01
7.409347e-01
6.779570e-01
7.409347e-01
7.258339e-01
7.868489e-01
7.258339e-01
7.868489e-01
7.782406e-01
8.371162e-01
7.782406e-01
8.371162e-01
8.348175e-01
8.914015e-01
8.348175e-01
8.914015e-01
8.951691e-01
9.493457e-01
8.951691e-01
9.493457e-01
9.588629e-01
1.010573e+00
9.588629e-01
1.010573e+00
1.025424e+00
1.074704e+00
1.025424e+00
1.074704e+00
1.094323e+00
1.141379e+00
1.094323e+00
1.141379e+00
1.164952e+00
1.210292e+00
1.164952e+00
1.210292e+00
1.236558e+00
1.281247e+00
1.236558e+00
1.281247e+00
1.308069e+00
1.354124e+00
1.308069e+00
1.354124e+00
1.378295e+00
1.426357e+00
1.378295e+00
1.426357e+00
1.441466e+00
1.490174e+00
1.441466e+00
1.490174e+00
1.495977e+00
1.546634e+00
1.495977e+00
1.546634e+00
1.542805e+00
1.595592e+00
1.542805e+00
1.595592e+00
1.582629e+00
1.637258e+00
1.582629e+00
1.637258e+00
1.616035e+00
1.672095e+00
1.616035e+00
1.672095e+00
1.643513e+00
1.700618e+00
1.643513e+00
1.700618e+00
1.665469e+00
1.723302e+00
1.665469e+00
1.723302e+00
1.682223e+00
1.740542e+00
1.682223e+00
1.740542e+00
1.694021e+00
1.752645e+00
1.694021e+00
1.752645e+00
1.701033e+00
1.759822e+00
1.701033e+00
1.759822e+00
1.703359e+00
1.762201e+00
</DataArray>
<DataArray type="Float32" Name="V3" format="ascii">
0.000000e+00
0.000000e+00
4.492420e-02
4.117613e-02
4.492420e-02
4.117613e-02
8.932236e-02
8.184397e-02
8.932236e-02
8.184397e-02
1.326679e-01
1.214976e-01
1.326679e-01
1.214976e-01
1.744415e-01
1.596363e-01
1.744415e-01
1.596363e-01
2.141319e-01
1.957671e-01
2.141319e-01
1.957671e-01
2.512383e-01
2.294074e-01
2.512383e-01
2.294074e-01
2.852732e-01
2.600877e-01
2.852732e-01
2.600877e-01
3.157649e-01
2.873542e-01
3.157649e-01
2.873542e-01
3.422595e-01
3.107719e-01
3.422595e-01
3.107719e-01
3.643231e-01
3.299277e-01
3.643231e-01
3.299277e-01
3.815437e-01
3.444340e-01
3.815437e-01
3.444340e-01
3.935321e-01
3.539334e-01
3.935321e-01
3.539334e-01
3.999218e-01
3.581052e-01
3.999218e-01
3.581052e-01
4.003680e-01
3.566734e-01
4.003680e-01
3.566734e-01
3.945426e-01
3.494193e-01
3.945426e-01
3.494193e-01
3.821242e-01
3.361974e-01
3.821242e-01
3.361974e-01
3.627752e-01
3.169479e-01
3.627752e-01
3.169479e-01
3.361350e-01
2.916309e-01
3.361350e-01
2.916309e-01
3.026483e-01
2.595165e-01
3.026483e-01
2.595165e-01
2.703489e-01
2.301218e-01
2.703489e-01
2.301218e-01
2.404620e-01
2.043065e-01
2.404620e-01
2.043065e-01
2.121110e-01
1.806090e-01
2.121110e-01
1.806090e-01
1.847580e-01
1.580129e-01
1.847580e-01
1.580129e-01
1.580013e-01
1.358478e-01
1.580013e-01
1.358478e-01
1.315613e-01
1.137162e-01
1.315613e-01
1.137162e-01
1.052564e-01
9.141246e-02
1.052564e-01
9.141246e-02
7.898074e-02
6.885959e-02
7.898074e-02
6.885959e-02
5.268382e-02
4.606359e-02
5.268382e-02
4.606359e-02
2.635317e-02
2.308160e-02
2.635317e-02
2.308160e-02
0.000000e+00
0.000000e+00
</DataArray>
<DataArray type="Float32" Name="V4" format="ascii">
8.500000e-01
1.000000e+00
8.500000e-01
1.000000e+00
8.500000e-01
1.000000e+00
8.500000e-01
1.000000e+00
8.500000e-01
1.000000e+00
8.500000e-01
1.000000e+00
8.500000e-01
1.000000e+00
8.500000e-01
1.000000e+00
8.500000e-01
1.000000e+00
8.500000e-01
1.000000e+00
8.500000e-01
1.000000e+00
8.500000e-01
1.000000e+00
8.500000e-01
1.000000e+00
8.500000e-01
1.000000e+00
8.500000e-01
1.000000e+00
8.500000e-01
1.000000e+00
8.500000e-01
1.000000e+00
8.500000e-01
1.000000e+00
8.500000e-01
1.000000e+00
8.500000e-01
1.000000e+00
8.500000e-01
1.000000e+00
8.500000e-01
1.000000e+00
8.500000e-01
1.000000e+00
8.500000e-01
1.000000e+00
8.500000e-01
1.000000e+00
8.500000e-01
1.000000e+00
8.500000e-01
1.000000e+00
8.500000e-01
1.000000e+00
8.500000e-01
1.000000e+00
8.500000e-01
1.000000e+00
8.500000e-01
1.000000e+00
8.500000e-01
1.000000e+00
8.500000e-01
1.000000e+00
8.500000e-01
1.000000e+00
8.500000e-01
1.000000e+00
8.500000e-01
1.000000e+00
8.500000e-01
1.000000e+00
8.500000e-01
1.000000e+00
8.500000e-01
1.000000e+00
8.500000e-01
1.000000e+00
8.500000e-01
1.000000e+00
8.500000e-01
1.000000e+00
8.500000e-01
1.000000e+00
8.500000e-01
1.000000e+00
8.500000e-01
1.000000e+00
8.500000e-01
1.000000e+00
8.500000e-01
1.000000e+00
8.500000e-01
1.000000e+00
8.500000e-01
1.000000e+00
8.500000e-01
1.000000e+00
8.500000e-01
1.000000e+00
8.500000e-01
1.000000e+00
8.500000e-01
1.000000e+00
8.500000e-01
1.000000e+00
8.500000e-01
1.000000e+00
8.500000e-01
1.000000e+00
8.500000e-01
1.000000e+00
8.500000e-01
1.000000e+00
8.500000e-01
1.000000e+00
8.500000e-01
1.000000e+00
</DataArray>
<DataArray type="Float32" Name="V5" format="ascii">
0.000000e+00
0.000000e+00
5.235988e-02
5.235988e-02
5.235988e-02
5.235988e-02
1.047198e-01
1.047198e-01
1.047198e-01
1.047198e-01
1.570796e-01
1.570796e-01
1.570796e-01
1.570796e-01
2.094395e-01
2.094395e-01
2.094395e-01
2.094395e-01
2.617994e-01
2.617994e-01
2.617994e-01
2.617994e-01
3.141593e-01
3.141593e-01
3.141593e-01
3.141593e-01
3.665191e-01
3.665191e-01
3.665191e-01
3.665191e-01
4.188790e-01
4.188790e-01
4.188790e-01
4.188790e-01
4.712389e-01
4.712389e-01
4.712389e-01
4.712389e-01
5.235988e-01
5.235988e-01
5.235988e-01
5.235988e-01
5.759587e-01
5.759587e-01
5.759587e-01
5.759587e-01
6.283185e-01
6.283185e-01
6.283185e-01
6.283185e-01
6.806784e-01
6.806784e-01
6.806784e-01
6.806784e-01
7.330383e-01
7.330383e-01
7.330383e-01
7.330383e-01
7.853982e-01
7.853982e-01
7.853982e-01
7.853982e-01
8.377580e-01
8.377580e-01
8.377580e-01
8.377580e-01
8.901179e-01
8.901179e-01
8.901179e-01
8.901179e-01
9.424778e-01
9.424778e-01
9.424778e-01
9.424778e-01
9.948377e-01
9.948377e-01
9.948377e-01
9.948377e-01
1.047198e+00
1.047198e+00
1.047198e+00
1.047198e+00
1.099557e+00
1.099557e+00
1.099557e+00
1.099557e+00
1.151917e+00
1.151917e+00
1.151917e+00
1.151917e+00
1.204277e+00
1.204277e+00
1.204277e+00
1.204277e+00
1.256637e+00
1.256637e+00
1.256637e+00
1.256637e+00
1.308997e+00
1.308997e+00
1.308997e+00
1.308997e+00
1.361357e+00
1.361357e+00
1.361357e+00
1.361357e+00
1.413717e+00
1.413717e+00
1.413717e+00
1.413717e+00
1.466077e+00
1.466077e+00
1.466077e+00
1.466077e+00
1.518436e+00
1.518436e+00
1.518436e+00
1.518436e+00
1.570796e+00
1.570796e+00
</DataArray>
</PointData>
</Piece></UnstructuredGrid>
</VTKFile>
