<?xml version="1.0"?>
<VTKFile type="UnstructuredGrid" version="0.1" byte_order="LittleEndian" compressor="vtkZLibDataCompressor">
<UnstructuredGrid>
<Piece NumberOfPoints="120" NumberOfCells="30">
<Points>
<DataArray type="Float32" NumberOfComponents="3" format="ascii">
0.000000e+00 8.921544e-01 0.000000e+00
0.000000e+00 1.000000e+00 0.000000e+00
5.708444e-02 8.922493e-01 0.000000e+00
5.734967e-02 1.000000e+00 0.000000e+00
5.708444e-02 8.922493e-01 0.000000e+00
5.734967e-02 1.000000e+00 0.000000e+00
1.140905e-01 8.925015e-01 0.000000e+00
1.148318e-01 1.000000e+00 0.000000e+00
1.140905e-01 8.925015e-01 0.000000e+00
1.148318e-01 1.000000e+00 0.000000e+00
1.708951e-01 8.929144e-01 0.000000e+00
1.726150e-01 1.000000e+00 0.000000e+00
1.708951e-01 8.929144e-01 0.000000e+00
1.726150e-01 1.000000e+00 0.000000e+00
2.272773e-01 8.934240e-01 0.000000e+00
2.309071e-01 1.000000e+00 0.000000e+00
2.272773e-01 8.934240e-01 0.000000e+00
2.309071e-01 1.000000e+00 0.000000e+00
2.828482e-01 8.937519e-01 0.000000e+00
2.898861e-01 1.000000e+00 0.000000e+00
2.828482e-01 8.937519e-01 0.000000e+00
2.898861e-01 1.000000e+00 0.000000e+00
3.372172e-01 8.932900e-01 0.000000e+00
3.492943e-01 1.000000e+00 0.000000e+00
3.372172e-01 8.932900e-01 0.000000e+00
3.492943e-01 1.000000e+00 0.000000e+00
3.909318e-01 8.902832e-01 0.000000e+00
4.080550e-01 9.970232e-01 0.000000e+00
3.909318e-01 8.902832e-01 0.000000e+00
4.080550e-01 9.970232e-01 0.000000e+00
4.431174e-01 8.826164e-01 0.000000e+00
4.666460e-01 9.873394e-01 0.000000e+00
4.431174e-01 8.826164e-01 0.000000e+00
4.666460e-01 9.873394e-01 0.000000e+00
4.941219e-01 8.706653e-01 0.000000e+00
5.247906e-01 9.728221e-01 0.000000e+00
4.941219e-01 8.706653e-01 0.000000e+00
5.247906e-01 9.728221e-01 0.000000e+00
5.439648e-01 8.544620e-01 0.000000e+00
5.817777e-01 9.535837e-01 0.000000e+00
5.439648e-01 8.544620e-01 0.000000e+00
5.817777e-01 9.535837e-01 0.000000e+00
5.925114e-01 8.343140e-01 0.000000e+00
6.371766e-01 9.299935e-01 0.000000e+00
5.925114e-01 8.343140e-01 0.000000e+00
6.371766e-01 9.299935e-01 0.000000e+00
6.395894e-01 8.104861e-01 0.000000e+00
6.906869e-01 9.023954e-01 0.000000e+00
6.395894e-01 8.104861e-01 0.000000e+00
6.906869e-01 9.023954e-01 0.000000e+00
6.850249e-01 7.832399e-01 0.000000e+00
7.420983e-01 8.711148e-01 0.000000e+00
6.850249e-01 7.832399e-01 0.000000e+00
7.420983e-01 8.711148e-01 0.000000e+00
7.286532e-01 7.528231e-01 0.000000e+00
7.912497e-01 8.364465e-01 0.000000e+00
7.286532e-01 7.528231e-01 0.000000e+00
7.912497e-01 8.364465e-01 0.000000e+00
7.703228e-01 7.194696e-01 0.000000e+00
8.380097e-01 7.986582e-01 0.000000e+00
7.703228e-01 7.194696e-01 0.000000e+00
8.380097e-01 7.986582e-01 0.000000e+00
8.098959e-01 6.834006e-01 0.000000e+00
8.822650e-01 7.579945e-01 0.000000e+00
8.098959e-01 6.834006e-01 0.000000e+00
8.822650e-01 7.579945e-01 0.000000e+00
8.472477e-01 6.448257e-01 0.000000e+00
9.239139e-01 7.146823e-01 0.000000e+00
8.472477e-01 6.448257e-01 0.000000e+00
9.239139e-01 7.146823e-01 0.000000e+00
8.822651e-01 6.039451e-01 0.000000e+00
9.628634e-01 6.689349e-01 0.000000e+00
8.822651e-01 6.039451e-01 0.000000e+00
9.628634e-01 6.689349e-01 0.000000e+00
9.148455e-01 5.609515e-01 0.000000e+00
9.990274e-01 6.209558e-01 0.000000e+00
9.148455e-01 5.609515e-01 0.000000e+00
9.990274e-01 6.209558e-01 0.000000e+00
9.448962e-01 5.160319e-01 0.000000e+00
1.032326e+00 5.709414e-01 0.000000e+00
9.448962e-01 5.160319e-01 0.000000e+00
1.032326e+00 5.709414e-01 0.000000e+00
9.723335e-01 4.693687e-01 0.000000e+00
1.062685e+00 5.190832e-01 0.000000e+00
9.723335e-01 4.693687e-01 0.000000e+00
1.062685e+00 5.190832e-01 0.000000e+00
9.970823e-01 4.211410e-01 0.000000e+00
1.090037e+00 4.655693e-01 0.000000e+00
9.970823e-01 4.211410e-01 0.000000e+00
1.090037e+00 4.655693e-01 0.000000e+00
1.019076e+00 3.715259e-01 0.000000e+00
1.114320e+00 4.105857e-01 0.000000e+00
1.019076e+00 3.715259e-01 0.000000e+00
1.114320e+00 4.105857e-01 0.000000e+00
1.038255e+00 3.206985e-01 0.000000e+00
1.135479e+00 3.543169e-01 0.000000e+00
1.038255e+00 3.206985e-01 0.000000e+00
1.135479e+00 3.543169e-01 0.000000e+00
1.054570e+00 2.688332e-01 0.000000e+00
1.153466e+00 2.969469e-01 0.000000e+00
1.054570e+00 2.688332e-01 0.000000e+00
1.153466e+00 2.969469e-01 0.000000e+00
1.067977e+00 2.161034e-01 0.000000e+00
1.168240e+00 2.386591e-01 0.000000e+00
1.067977e+00 2.161034e-01 0.000000e+00
1.168240e+00 2.386591e-01 0.000000e+00
1.078441e+00 1.626822e-01 0.000000e+00
1.179766e+00 1.796371e-01 0.000000e+00
1.078441e+00 1.626822e-01 0.000000e+00
1.179766e+00 1.796371e-01 0.000000e+00
1.085935e+00 1.087428e-01 0.000000e+00
1.188018e+00 1.200641e-01 0.000000e+00
1.085935e+00 1.087428e-01 0.000000e+00
1.188018e+00 1.200641e-01 0.000000e+00
1.090439e+00 5.445777e-02 0.000000e+00
1.192977e+00 6.012391e-02 0.000000e+00
1.090439e+00 5.445777e-02 0.000000e+00
1.192977e+00 6.012391e-02 0.000000e+00
1.091942e+00 5.346790e-12 0.000000e+00
1.194631e+00 5.849620e-12 0.000000e+00
</DataArray>
</Points>
<Cells>
<DataArray type="Int32" Name="connectivity" format="ascii">
0 1 3 2
4 5 7 6
8 9 11 10
12 13 15 14
16 17 19 18
20 21 23 22
24 25 27 26
28 29 31 30
32 33 35 34
36 37 39 38
40 41 43 42
44 45 47 46
48 49 51 50
52 53 55 54
56 57 59 58
60 61 63 62
64 65 67 66
68 69 71 70
72 73 75 74
76 77 79 78
80 81 83 82
84 85 87 86
88 89 91 90
92 93 95 94
96 97 99 98
100 101 103 102
104 105 107 106
108 109 111 110
112 113 115 114
116 117 119 118
</DataArray>
<DataArray type="Int32" Name="offsets" format="ascii">
4
8
12
16
20
24
28
32
36
40
44
48
52
56
60
64
68
72
76
80
84
88
92
96
100
104
108
112
116
120
</DataArray>
<DataArray type="UInt8" Name="types" format="ascii">
9
9
9
9
9
9
9
9
9
9
9
9
9
9
9
9
9
9
9
9
9
9
9
9
9
9
9
9
9
9
</DataArray>
</Cells>
<PointData>
<DataArray type="Float32" Name="V1" format="ascii">
1.237300e+01
-2.993755e-02
1.239092e+01
-1.201785e-02
1.234007e+01
1.878897e-02
1.238300e+01
6.171808e-02
1.224535e+01
1.529261e-01
1.232650e+01
2.340721e-01
1.200815e+01
4.520939e-01
1.215378e+01
5.977290e-01
1.148688e+01
1.070796e+00
1.177592e+01
1.359831e+00
1.046705e+01
2.360405e+00
1.108070e+01
2.974055e+00
9.178928e+00
4.775021e+00
9.860054e+00
5.456147e+00
8.838552e+00
6.091531e+00
9.064369e+00
6.317349e+00
8.683615e+00
6.627667e+00
8.895487e+00
6.839539e+00
8.725184e+00
6.981556e+00
8.921730e+00
7.178102e+00
8.876993e+00
7.216565e+00
9.055436e+00
7.395009e+00
9.073497e+00
7.380632e+00
9.232611e+00
7.539746e+00
9.281919e+00
7.499452e+00
9.422367e+00
7.639900e+00
9.484894e+00
7.588906e+00
9.608107e+00
7.712119e+00
9.674058e+00
7.658610e+00
9.781764e+00
7.766316e+00
9.845927e+00
7.714546e+00
9.939866e+00
7.808486e+00
9.999650e+00
7.760503e+00
1.008144e+01
7.842295e+00
1.013572e+01
7.798935e+00
1.020681e+01
7.870027e+00
1.025527e+01
7.831480e+00
1.031692e+01
7.893133e+00
1.035965e+01
7.859263e+00
1.041295e+01
7.912564e+00
1.045026e+01
7.883084e+00
1.049614e+01
7.928960e+00
1.052840e+01
7.903530e+00
1.056763e+01
7.942763e+00
1.059525e+01
7.921044e+00
1.062850e+01
7.954294e+00
1.065184e+01
7.935971e+00
1.067966e+01
7.963785e+00
1.069906e+01
7.948580e+00
1.072189e+01
7.971410e+00
1.073763e+01
7.959088e+00
1.075584e+01
7.977298e+00
1.076816e+01
7.967666e+00
1.078203e+01
7.981544e+00
1.079111e+01
7.974449e+00
1.080088e+01
7.984211e+00
1.080685e+01
7.979543e+00
1.081265e+01
7.985341e+00
1.081562e+01
7.983024e+00
1.081754e+01
7.984947e+00
</DataArray>
<DataArray type="Float32" Name="V2" format="ascii">
8.921544e-01
1.000000e+00
8.940141e-01
1.001631e+00
8.940141e-01
1.001631e+00
8.995380e-01
1.006525e+00
8.995380e-01
1.006525e+00
9.086551e-01
1.014691e+00
9.086551e-01
1.014691e+00
9.211542e-01
1.026156e+00
9.211542e-01
1.026156e+00
9.365046e-01
1.040954e+00
9.365046e-01
1.040954e+00
9.537751e-01
1.058994e+00
9.537751e-01
1.058994e+00
9.712484e-01
1.077035e+00
9.712484e-01
1.077035e+00
9.865423e-01
1.091781e+00
9.865423e-01
1.091781e+00
1.000095e+00
1.105041e+00
1.000095e+00
1.105041e+00
1.011968e+00
1.116717e+00
1.011968e+00
1.116717e+00
1.022419e+00
1.126989e+00
1.022419e+00
1.126989e+00
1.031638e+00
1.136029e+00
1.031638e+00
1.136029e+00
1.039792e+00
1.144001e+00
1.039792e+00
1.144001e+00
1.047021e+00
1.151050e+00
1.047021e+00
1.151050e+00
1.053442e+00
1.157299e+00
1.053442e+00
1.157299e+00
1.059154e+00
1.162848e+00
1.059154e+00
1.162848e+00
1.064237e+00
1.167780e+00
1.064237e+00
1.167780e+00
1.068757e+00
1.172163e+00
1.068757e+00
1.172163e+00
1.072770e+00
1.176052e+00
1.072770e+00
1.176052e+00
1.076320e+00
1.179491e+00
1.076320e+00
1.179491e+00
1.079444e+00
1.182518e+00
1.079444e+00
1.182518e+00
1.082174e+00
1.185162e+00
1.082174e+00
1.185162e+00
1.084532e+00
1.187448e+00
1.084532e+00
1.187448e+00
1.086541e+00
1.189395e+00
1.086541e+00
1.189395e+00
1.088216e+00
1.191018e+00
1.088216e+00
1.191018e+00
1.089570e+00
1.192331e+00
1.089570e+00
1.192331e+00
1.090613e+00
1.193342e+00
1.090613e+00
1.193342e+00
1.091353e+00
1.194060e+00
1.091353e+00
1.194060e+00
1.091795e+00
1.194489e+00
1.091795e+00
1.194489e+00
1.091942e+00
1.194631e+00
</DataArray>
<DataArray type="Float32" Name="V3" format="ascii">
0.000000e+00
0.000000e+00
1.030949e-02
4.935122e-03
1.030949e-02
4.935122e-03
2.017370e-02
9.674293e-03
2.017370e-02
9.674293e-03
2.910855e-02
1.405535e-02
2.910855e-02
1.405535e-02
3.655749e-02
1.794953e-02
3.655749e-02
1.794953e-02
4.189035e-02
2.118942e-02
4.189035e-02
2.118942e-02
4.467084e-02
2.318164e-02
4.467084e-02
2.318164e-02
4.591734e-02
2.365099e-02
4.591734e-02
2.365099e-02
4.581547e-02
2.471524e-02
4.581547e-02
2.471524e-02
4.499204e-02
2.593989e-02
4.499204e-02
2.593989e-02
4.385636e-02
2.704242e-02
4.385636e-02
2.704242e-02
4.252190e-02
2.787048e-02
4.252190e-02
2.787048e-02
4.104688e-02
2.836274e-02
4.104688e-02
2.836274e-02
3.945546e-02
2.850841e-02
3.945546e-02
2.850841e-02
3.775785e-02
2.832115e-02
3.775785e-02
2.832115e-02
3.595858e-02
2.782574e-02
3.595858e-02
2.782574e-02
3.406050e-02
2.705082e-02
3.406050e-02
2.705082e-02
3.206660e-02
2.602543e-02
3.206660e-02
2.602543e-02
2.998059e-02
2.477726e-02
2.998059e-02
2.477726e-02
2.780704e-02
2.333200e-02
2.780704e-02
2.333200e-02
2.555135e-02
2.171319e-02
2.555135e-02
2.171319e-02
2.321961e-02
1.994235e-02
2.321961e-02
1.994235e-02
2.081843e-02
1.803915e-02
2.081843e-02
1.803915e-02
1.835484e-02
1.602172e-02
1.835484e-02
1.602172e-02
1.583617e-02
1.390686e-02
1.583617e-02
1.390686e-02
1.326998e-02
1.171027e-02
1.326998e-02
1.171027e-02
1.066399e-02
9.446796e-03
1.066399e-02
9.446796e-03
8.026043e-03
7.130587e-03
8.026043e-03
7.130587e-03
5.364071e-03
4.775264e-03
5.364071e-03
4.775264e-03
2.686051e-03
2.394070e-03
2.686051e-03
2.394070e-03
0.000000e+00
0.000000e+00
</DataArray>
<DataArray type="Float32" Name="V4" format="ascii">
8.500000e-01
1.000000e+00
8.500000e-01
1.000000e+00
8.500000e-01
1.000000e+00
8.500000e-01
1.000000e+00
8.500000e-01
1.000000e+00
8.500000e-01
1.000000e+00
8.500000e-01
1.000000e+00
8.500000e-01
1.000000e+00
8.500000e-01
1.000000e+00
8.500000e-01
1.000000e+00
8.500000e-01
1.000000e+00
8.500000e-01
1.000000e+00
8.500000e-01
1.000000e+00
8.500000e-01
1.000000e+00
8.500000e-01
1.000000e+00
8.500000e-01
1.000000e+00
8.500000e-01
1.000000e+00
8.500000e-01
1.000000e+00
8.500000e-01
1.000000e+00
8.500000e-01
1.000000e+00
8.500000e-01
1.000000e+00
8.500000e-01
1.000000e+00
8.500000e-01
1.000000e+00
8.500000e-01
1.000000e+00
8.500000e-01
1.000000e+00
8.500000e-01
1.000000e+00
8.500000e-01
1.000000e+00
8.500000e-01
1.000000e+00
8.500000e-01
1.000000e+00
8.500000e-01
1.000000e+00
8.500000e-01
1.000000e+00
8.500000e-01
1.000000e+00
8.500000e-01
1.000000e+00
8.500000e-01
1.000000e+00
8.500000e-01
1.000000e+00
8.500000e-01
1.000000e+00
8.500000e-01
1.000000e+00
8.500000e-01
1.000000e+00
8.500000e-01
1.000000e+00
8.500000e-01
1.000000e+00
8.500000e-01
1.000000e+00
8.500000e-01
1.000000e+00
8.500000e-01
1.000000e+00
8.500000e-01
1.000000e+00
8.500000e-01
1.000000e+00
8.500000e-01
1.000000e+00
8.500000e-01
1.000000e+00
8.500000e-01
1.000000e+00
8.500000e-01
1.000000e+00
8.500000e-01
1.000000e+00
8.500000e-01
1.000000e+00
8.500000e-01
1.000000e+00
8.500000e-01
1.000000e+00
8.500000e-01
1.000000e+00
8.500000e-01
1.000000e+00
8.500000e-01
1.000000e+00
8.500000e-01
1.000000e+00
8.500000e-01
1.000000e+00
8.500000e-01
1.000000e+00
8.500000e-01
1.000000e+00
</DataArray>
<DataArray type="Float32" Name="V5" format="ascii">
0.000000e+00
0.000000e+00
5.235988e-02
5.235988e-02
5.235988e-02
5.235988e-02
1.047198e-01
1.047198e-01
1.047198e-01
1.047198e-01
1.570796e-01
1.570796e-01
1.570796e-01
1.570796e-01
2.094395e-01
2.094395e-01
2.094395e-01
2.094395e-01
2.617994e-01
2.617994e-01
2.617994e-01
2.617994e-01
3.141593e-01
3.141593e-01
3.141593e-01
3.141593e-01
3.665191e-01
3.665191e-01
3.665191e-01
3.665191e-01
4.188790e-01
4.188790e-01
4.188790e-01
4.188790e-01
4.712389e-01
4.712389e-01
4.712389e-01
4.712389e-01
5.235988e-01
5.235988e-01
5.235988e-01
5.235988e-01
5.759587e-01
5.759587e-01
5.759587e-01
5.759587e-01
6.283185e-01
6.283185e-01
6.283185e-01
6.283185e-01
6.806784e-01
6.806784e-01
6.806784e-01
6.806784e-01
7.330383e-01
7.330383e-01
7.330383e-01
7.330383e-01
7.853982e-01
7.853982e-01
7.853982e-01
7.853982e-01
8.377580e-01
8.377580e-01
8.377580e-01
8.377580e-01
8.901179e-01
8.901179e-01
8.901179e-01
8.901179e-01
9.424778e-01
9.424778e-01
9.424778e-01
9.424778e-01
9.948377e-01
9.948377e-01
9.948377e-01
9.948377e-01
1.047198e+00
1.047198e+00
1.047198e+00
1.047198e+00
1.099557e+00
1.099557e+00
1.099557e+00
1.099557e+00
1.151917e+00
1.151917e+00
1.151917e+00
1.151917e+00
1.204277e+00
1.204277e+00
1.204277e+00
1.204277e+00
1.256637e+00
1.256637e+00
1.256637e+00
1.256637e+00
1.308997e+00
1.308997e+00
1.308997e+00
1.308997e+00
1.361357e+00
1.361357e+00
1.361357e+00
1.361357e+00
1.413717e+00
1.413717e+00
1.413717e+00
1.413717e+00
1.466077e+00
1.466077e+00
1.466077e+00
1.466077e+00
1.518436e+00
1.518436e+00
1.518436e+00
1.518436e+00
1.570796e+00
1.570796e+00
</DataArray>
</PointData>
</Piece></UnstructuredGrid>
</VTKFile>
