<?xml version="1.0"?>
<VTKFile type="UnstructuredGrid" version="0.1" byte_order="LittleEndian" compressor="vtkZLibDataCompressor">
<UnstructuredGrid>
<Piece NumberOfPoints="120" NumberOfCells="30">
<Points>
<DataArray type="Float32" NumberOfComponents="3" format="ascii">
0.000000e+00 1.004664e+00 0.000000e+00
0.000000e+00 1.110000e+00 0.000000e+00
5.592950e-02 1.004609e+00 0.000000e+00
5.965308e-02 1.110000e+00 0.000000e+00
5.592950e-02 1.004609e+00 0.000000e+00
5.965308e-02 1.110000e+00 0.000000e+00
1.112598e-01 1.003950e+00 0.000000e+00
1.193953e-01 1.110000e+00 0.000000e+00
1.112598e-01 1.003950e+00 0.000000e+00
1.193953e-01 1.110000e+00 0.000000e+00
1.661638e-01 1.002027e+00 0.000000e+00
1.785777e-01 1.109139e+00 0.000000e+00
1.661638e-01 1.002027e+00 0.000000e+00
1.785777e-01 1.109139e+00 0.000000e+00
2.202869e-01 9.964373e-01 0.000000e+00
2.374278e-01 1.102879e+00 0.000000e+00
2.202869e-01 9.964373e-01 0.000000e+00
2.374278e-01 1.102879e+00 0.000000e+00
2.734824e-01 9.875254e-01 0.000000e+00
2.962311e-01 1.092633e+00 0.000000e+00
2.734824e-01 9.875254e-01 0.000000e+00
2.962311e-01 1.092633e+00 0.000000e+00
3.259185e-01 9.751982e-01 0.000000e+00
3.545226e-01 1.078645e+00 0.000000e+00
3.259185e-01 9.751982e-01 0.000000e+00
3.545226e-01 1.078645e+00 0.000000e+00
3.775168e-01 9.596388e-01 0.000000e+00
4.119662e-01 1.061106e+00 0.000000e+00
3.775168e-01 9.596388e-01 0.000000e+00
4.119662e-01 1.061106e+00 0.000000e+00
4.281454e-01 9.409855e-01 0.000000e+00
4.683110e-01 1.040175e+00 0.000000e+00
4.281454e-01 9.409855e-01 0.000000e+00
4.683110e-01 1.040175e+00 0.000000e+00
4.776587e-01 9.193684e-01 0.000000e+00
5.233592e-01 1.016001e+00 0.000000e+00
4.776587e-01 9.193684e-01 0.000000e+00
5.233592e-01 1.016001e+00 0.000000e+00
5.259099e-01 8.949103e-01 0.000000e+00
5.769410e-01 9.887227e-01 0.000000e+00
5.259099e-01 8.949103e-01 0.000000e+00
5.769410e-01 9.887227e-01 0.000000e+00
5.727558e-01 8.677303e-01 0.000000e+00
6.289025e-01 9.584731e-01 0.000000e+00
5.727558e-01 8.677303e-01 0.000000e+00
6.289025e-01 9.584731e-01 0.000000e+00
6.180583e-01 8.379460e-01 0.000000e+00
6.791004e-01 9.253818e-01 0.000000e+00
6.180583e-01 8.379460e-01 0.000000e+00
6.791004e-01 9.253818e-01 0.000000e+00
6.616857e-01 8.056743e-01 0.000000e+00
7.273988e-01 8.895767e-01 0.000000e+00
6.616857e-01 8.056743e-01 0.000000e+00
7.273988e-01 8.895767e-01 0.000000e+00
7.035124e-01 7.710330e-01 0.000000e+00
7.736688e-01 8.511858e-01 0.000000e+00
7.035124e-01 7.710330e-01 0.000000e+00
7.736688e-01 8.511858e-01 0.000000e+00
7.434197e-01 7.341414e-01 0.000000e+00
8.177870e-01 8.103386e-01 0.000000e+00
7.434197e-01 7.341414e-01 0.000000e+00
8.177870e-01 8.103386e-01 0.000000e+00
7.812948e-01 6.951212e-01 0.000000e+00
8.596364e-01 7.671669e-01 0.000000e+00
7.812948e-01 6.951212e-01 0.000000e+00
8.596364e-01 7.671669e-01 0.000000e+00
8.170319e-01 6.540964e-01 0.000000e+00
8.991057e-01 7.218055e-01 0.000000e+00
8.170319e-01 6.540964e-01 0.000000e+00
8.991057e-01 7.218055e-01 0.000000e+00
8.505315e-01 6.111941e-01 0.000000e+00
9.360899e-01 6.743922e-01 0.000000e+00
8.505315e-01 6.111941e-01 0.000000e+00
9.360899e-01 6.743922e-01 0.000000e+00
8.817008e-01 5.665443e-01 0.000000e+00
9.704908e-01 6.250683e-01 0.000000e+00
8.817008e-01 5.665443e-01 0.000000e+00
9.704908e-01 6.250683e-01 0.000000e+00
9.104537e-01 5.202798e-01 0.000000e+00
1.002217e+00 5.739787e-01 0.000000e+00
9.104537e-01 5.202798e-01 0.000000e+00
1.002217e+00 5.739787e-01 0.000000e+00
9.367112e-01 4.725368e-01 0.000000e+00
1.031183e+00 5.212716e-01 0.000000e+00
9.367112e-01 4.725368e-01 0.000000e+00
1.031183e+00 5.212716e-01 0.000000e+00
9.604013e-01 4.234541e-01 0.000000e+00
1.057312e+00 4.670984e-01 0.000000e+00
9.604013e-01 4.234541e-01 0.000000e+00
1.057312e+00 4.670984e-01 0.000000e+00
9.814590e-01 3.731731e-01 0.000000e+00
1.080534e+00 4.116137e-01 0.000000e+00
9.814590e-01 3.731731e-01 0.000000e+00
1.080534e+00 4.116137e-01 0.000000e+00
9.998267e-01 3.218379e-01 0.000000e+00
1.100787e+00 3.549749e-01 0.000000e+00
9.998267e-01 3.218379e-01 0.000000e+00
1.100787e+00 3.549749e-01 0.000000e+00
1.015454e+00 2.695948e-01 0.000000e+00
1.118017e+00 2.973420e-01 0.000000e+00
1.015454e+00 2.695948e-01 0.000000e+00
1.118017e+00 2.973420e-01 0.000000e+00
1.028299e+00 2.165920e-01 0.000000e+00
1.132177e+00 2.388770e-01 0.000000e+00
1.028299e+00 2.165920e-01 0.000000e+00
1.132177e+00 2.388770e-01 0.000000e+00
1.038326e+00 1.629794e-01 0.000000e+00
1.143231e+00 1.797442e-01 0.000000e+00
1.038326e+00 1.629794e-01 0.000000e+00
1.143231e+00 1.797442e-01 0.000000e+00
1.045507e+00 1.089082e-01 0.000000e+00
1.151147e+00 1.201091e-01 0.000000e+00
1.045507e+00 1.089082e-01 0.000000e+00
1.151147e+00 1.201091e-01 0.000000e+00
1.049824e+00 5.453077e-02 0.000000e+00
1.155906e+00 6.013855e-02 0.000000e+00
1.049824e+00 5.453077e-02 0.000000e+00
1.155906e+00 6.013855e-02 0.000000e+00
1.051264e+00 5.147610e-12 0.000000e+00
1.157493e+00 5.667770e-12 0.000000e+00
</DataArray>
</Points>
<Cells>
<DataArray type="Int32" Name="connectivity" format="ascii">
0 1 3 2
4 5 7 6
8 9 11 10
12 13 15 14
16 17 19 18
20 21 23 22
24 25 27 26
28 29 31 30
32 33 35 34
36 37 39 38
40 41 43 42
44 45 47 46
48 49 51 50
52 53 55 54
56 57 59 58
60 61 63 62
64 65 67 66
68 69 71 70
72 73 75 74
76 77 79 78
80 81 83 82
84 85 87 86
88 89 91 90
92 93 95 94
96 97 99 98
100 101 103 102
104 105 107 106
108 109 111 110
112 113 115 114
116 117 119 118
</DataArray>
<DataArray type="Int32" Name="offsets" format="ascii">
4
8
12
16
20
24
28
32
36
40
44
48
52
56
60
64
68
72
76
80
84
88
92
96
100
104
108
112
116
120
</DataArray>
<DataArray type="UInt8" Name="types" format="ascii">
9
9
9
9
9
9
9
9
9
9
9
9
9
9
9
9
9
9
9
9
9
9
9
9
9
9
9
9
9
9
</DataArray>
</Cells>
<PointData>
<DataArray type="Float32" Name="V1" format="ascii">
1.128145e+01
2.079614e+00
1.141719e+01
2.215348e+00
1.070564e+01
2.699972e+00
1.107727e+01
3.071604e+00
9.602612e+00
4.369718e+00
1.022526e+01
4.992368e+00
9.122026e+00
5.853149e+00
9.311096e+00
6.042219e+00
8.911081e+00
6.314288e+00
8.995957e+00
6.399164e+00
8.808131e+00
6.546170e+00
8.875860e+00
6.613899e+00
8.791850e+00
6.681283e+00
8.848707e+00
6.738141e+00
8.814913e+00
6.765261e+00
8.862741e+00
6.813090e+00
8.854598e+00
6.819635e+00
8.895003e+00
6.860041e+00
8.899477e+00
6.856477e+00
8.933761e+00
6.890761e+00
8.944041e+00
6.882573e+00
8.973260e+00
6.911791e+00
8.985758e+00
6.901853e+00
9.010762e+00
6.926858e+00
9.023628e+00
6.916647e+00
9.045105e+00
6.938123e+00
9.057421e+00
6.928366e+00
9.075923e+00
6.946868e+00
9.087273e+00
6.937890e+00
9.103251e+00
6.953869e+00
9.113485e+00
6.945785e+00
9.127307e+00
6.959607e+00
9.136410e+00
6.952424e+00
9.148378e+00
6.964392e+00
9.156404e+00
6.958066e+00
9.166766e+00
6.968428e+00
9.173795e+00
6.962893e+00
9.182757e+00
6.971855e+00
9.188879e+00
6.967038e+00
9.196613e+00
6.974772e+00
9.201914e+00
6.970603e+00
9.208561e+00
6.977251e+00
9.213121e+00
6.973667e+00
9.218801e+00
6.979347e+00
9.222691e+00
6.976292e+00
9.227501e+00
6.981102e+00
9.230781e+00
6.978527e+00
9.234804e+00
6.982549e+00
9.237526e+00
6.980413e+00
9.240826e+00
6.983713e+00
9.243033e+00
6.981981e+00
9.245665e+00
6.984614e+00
9.247391e+00
6.983260e+00
9.249396e+00
6.985265e+00
9.250668e+00
6.984268e+00
9.252079e+00
6.985679e+00
9.252916e+00
6.985022e+00
9.253754e+00
6.985860e+00
9.254169e+00
6.985534e+00
9.254447e+00
6.985812e+00
</DataArray>
<DataArray type="Float32" Name="V2" format="ascii">
1.004664e+00
1.110000e+00
1.006159e+00
1.111601e+00
1.006159e+00
1.111601e+00
1.010080e+00
1.116400e+00
1.010080e+00
1.116400e+00
1.015684e+00
1.123420e+00
1.015684e+00
1.123420e+00
1.020463e+00
1.128143e+00
1.020463e+00
1.128143e+00
1.024659e+00
1.132073e+00
1.024659e+00
1.132073e+00
1.028183e+00
1.135405e+00
1.028183e+00
1.135405e+00
1.031190e+00
1.138264e+00
1.031190e+00
1.138264e+00
1.033775e+00
1.140727e+00
1.033775e+00
1.140727e+00
1.036016e+00
1.142864e+00
1.036016e+00
1.142864e+00
1.037970e+00
1.144729e+00
1.037970e+00
1.144729e+00
1.039685e+00
1.146368e+00
1.039685e+00
1.146368e+00
1.041198e+00
1.147815e+00
1.041198e+00
1.147815e+00
1.042539e+00
1.149098e+00
1.042539e+00
1.149098e+00
1.043731e+00
1.150240e+00
1.043731e+00
1.150240e+00
1.044793e+00
1.151259e+00
1.044793e+00
1.151259e+00
1.045742e+00
1.152169e+00
1.045742e+00
1.152169e+00
1.046589e+00
1.152983e+00
1.046589e+00
1.152983e+00
1.047345e+00
1.153710e+00
1.047345e+00
1.153710e+00
1.048019e+00
1.154359e+00
1.048019e+00
1.154359e+00
1.048616e+00
1.154934e+00
1.048616e+00
1.154934e+00
1.049143e+00
1.155443e+00
1.049143e+00
1.155443e+00
1.049605e+00
1.155888e+00
1.049605e+00
1.155888e+00
1.050004e+00
1.156274e+00
1.050004e+00
1.156274e+00
1.050345e+00
1.156604e+00
1.050345e+00
1.156604e+00
1.050630e+00
1.156879e+00
1.050630e+00
1.156879e+00
1.050860e+00
1.157102e+00
1.050860e+00
1.157102e+00
1.051038e+00
1.157274e+00
1.051038e+00
1.157274e+00
1.051164e+00
1.157396e+00
1.051164e+00
1.157396e+00
1.051239e+00
1.157469e+00
1.051239e+00
1.157469e+00
1.051264e+00
1.157493e+00
</DataArray>
<DataArray type="Float32" Name="V3" format="ascii">
0.000000e+00
0.000000e+00
3.275700e-03
1.478418e-03
3.275700e-03
1.478418e-03
5.708945e-03
2.714679e-03
5.708945e-03
2.714679e-03
7.366548e-03
2.871517e-03
7.366548e-03
2.871517e-03
8.302119e-03
2.937903e-03
8.302119e-03
2.937903e-03
8.573281e-03
3.342979e-03
8.573281e-03
3.342979e-03
8.614071e-03
3.851478e-03
8.614071e-03
3.851478e-03
8.538500e-03
4.337156e-03
8.538500e-03
4.337156e-03
8.396952e-03
4.745895e-03
8.396952e-03
4.745895e-03
8.212497e-03
5.061628e-03
8.212497e-03
5.061628e-03
7.996249e-03
5.284260e-03
7.996249e-03
5.284260e-03
7.753617e-03
5.420186e-03
7.753617e-03
5.420186e-03
7.487364e-03
5.477945e-03
7.487364e-03
5.477945e-03
7.199078e-03
5.466307e-03
7.199078e-03
5.466307e-03
6.889873e-03
5.393481e-03
6.889873e-03
5.393481e-03
6.560715e-03
5.266840e-03
6.560715e-03
5.266840e-03
6.212568e-03
5.092886e-03
6.212568e-03
5.092886e-03
5.846445e-03
4.877319e-03
5.846445e-03
4.877319e-03
5.463423e-03
4.625142e-03
5.463423e-03
4.625142e-03
5.064642e-03
4.340766e-03
5.064642e-03
4.340766e-03
4.651293e-03
4.028115e-03
4.651293e-03
4.028115e-03
4.224612e-03
3.690709e-03
4.224612e-03
3.690709e-03
3.785867e-03
3.331742e-03
3.785867e-03
3.331742e-03
3.336351e-03
2.954142e-03
3.336351e-03
2.954142e-03
2.877378e-03
2.560627e-03
2.877378e-03
2.560627e-03
2.410276e-03
2.153740e-03
2.410276e-03
2.153740e-03
1.936387e-03
1.735894e-03
1.936387e-03
1.735894e-03
1.457057e-03
1.309395e-03
1.457057e-03
1.309395e-03
9.736432e-04
8.764709e-04
9.736432e-04
8.764709e-04
4.875033e-04
4.392943e-04
4.875033e-04
4.392943e-04
0.000000e+00
0.000000e+00
</DataArray>
<DataArray type="Float32" Name="V4" format="ascii">
8.500000e-01
1.000000e+00
8.500000e-01
1.000000e+00
8.500000e-01
1.000000e+00
8.500000e-01
1.000000e+00
8.500000e-01
1.000000e+00
8.500000e-01
1.000000e+00
8.500000e-01
1.000000e+00
8.500000e-01
1.000000e+00
8.500000e-01
1.000000e+00
8.500000e-01
1.000000e+00
8.500000e-01
1.000000e+00
8.500000e-01
1.000000e+00
8.500000e-01
1.000000e+00
8.500000e-01
1.000000e+00
8.500000e-01
1.000000e+00
8.500000e-01
1.000000e+00
8.500000e-01
1.000000e+00
8.500000e-01
1.000000e+00
8.500000e-01
1.000000e+00
8.500000e-01
1.000000e+00
8.500000e-01
1.000000e+00
8.500000e-01
1.000000e+00
8.500000e-01
1.000000e+00
8.500000e-01
1.000000e+00
8.500000e-01
1.000000e+00
8.500000e-01
1.000000e+00
8.500000e-01
1.000000e+00
8.500000e-01
1.000000e+00
8.500000e-01
1.000000e+00
8.500000e-01
1.000000e+00
8.500000e-01
1.000000e+00
8.500000e-01
1.000000e+00
8.500000e-01
1.000000e+00
8.500000e-01
1.000000e+00
8.500000e-01
1.000000e+00
8.500000e-01
1.000000e+00
8.500000e-01
1.000000e+00
8.500000e-01
1.000000e+00
8.500000e-01
1.000000e+00
8.500000e-01
1.000000e+00
8.500000e-01
1.000000e+00
8.500000e-01
1.000000e+00
8.500000e-01
1.000000e+00
8.500000e-01
1.000000e+00
8.500000e-01
1.000000e+00
8.500000e-01
1.000000e+00
8.500000e-01
1.000000e+00
8.500000e-01
1.000000e+00
8.500000e-01
1.000000e+00
8.500000e-01
1.000000e+00
8.500000e-01
1.000000e+00
8.500000e-01
1.000000e+00
8.500000e-01
1.000000e+00
8.500000e-01
1.000000e+00
8.500000e-01
1.000000e+00
8.500000e-01
1.000000e+00
8.500000e-01
1.000000e+00
8.500000e-01
1.000000e+00
8.500000e-01
1.000000e+00
8.500000e-01
1.000000e+00
</DataArray>
<DataArray type="Float32" Name="V5" format="ascii">
0.000000e+00
0.000000e+00
5.235988e-02
5.235988e-02
5.235988e-02
5.235988e-02
1.047198e-01
1.047198e-01
1.047198e-01
1.047198e-01
1.570796e-01
1.570796e-01
1.570796e-01
1.570796e-01
2.094395e-01
2.094395e-01
2.094395e-01
2.094395e-01
2.617994e-01
2.617994e-01
2.617994e-01
2.617994e-01
3.141593e-01
3.141593e-01
3.141593e-01
3.141593e-01
3.665191e-01
3.665191e-01
3.665191e-01
3.665191e-01
4.188790e-01
4.188790e-01
4.188790e-01
4.188790e-01
4.712389e-01
4.712389e-01
4.712389e-01
4.712389e-01
5.235988e-01
5.235988e-01
5.235988e-01
5.235988e-01
5.759587e-01
5.759587e-01
5.759587e-01
5.759587e-01
6.283185e-01
6.283185e-01
6.283185e-01
6.283185e-01
6.806784e-01
6.806784e-01
6.806784e-01
6.806784e-01
7.330383e-01
7.330383e-01
7.330383e-01
7.330383e-01
7.853982e-01
7.853982e-01
7.853982e-01
7.853982e-01
8.377580e-01
8.377580e-01
8.377580e-01
8.377580e-01
8.901179e-01
8.901179e-01
8.901179e-01
8.901179e-01
9.424778e-01
9.424778e-01
9.424778e-01
9.424778e-01
9.948377e-01
9.948377e-01
9.948377e-01
9.948377e-01
1.047198e+00
1.047198e+00
1.047198e+00
1.047198e+00
1.099557e+00
1.099557e+00
1.099557e+00
1.099557e+00
1.151917e+00
1.151917e+00
1.151917e+00
1.151917e+00
1.204277e+00
1.204277e+00
1.204277e+00
1.204277e+00
1.256637e+00
1.256637e+00
1.256637e+00
1.256637e+00
1.308997e+00
1.308997e+00
1.308997e+00
1.308997e+00
1.361357e+00
1.361357e+00
1.361357e+00
1.361357e+00
1.413717e+00
1.413717e+00
1.413717e+00
1.413717e+00
1.466077e+00
1.466077e+00
1.466077e+00
1.466077e+00
1.518436e+00
1.518436e+00
1.518436e+00
1.518436e+00
1.570796e+00
1.570796e+00
</DataArray>
</PointData>
</Piece></UnstructuredGrid>
</VTKFile>
