<?xml version="1.0"?>
<VTKFile type="UnstructuredGrid" version="0.1" byte_order="LittleEndian" compressor="vtkZLibDataCompressor">
<UnstructuredGrid>
<Piece NumberOfPoints="120" NumberOfCells="30">
<Points>
<DataArray type="Float32" NumberOfComponents="3" format="ascii">
0.000000e+00 7.169456e-01 0.000000e+00
0.000000e+00 8.200000e-01 0.000000e+00
5.856237e-02 7.170009e-01 0.000000e+00
5.846119e-02 8.200000e-01 0.000000e+00
5.856237e-02 7.170009e-01 0.000000e+00
5.846119e-02 8.200000e-01 0.000000e+00
1.171233e-01 7.171411e-01 0.000000e+00
1.169240e-01 8.200000e-01 0.000000e+00
1.171233e-01 7.171411e-01 0.000000e+00
1.169240e-01 8.200000e-01 0.000000e+00
1.756778e-01 7.173767e-01 0.000000e+00
1.753935e-01 8.200000e-01 0.000000e+00
1.756778e-01 7.173767e-01 0.000000e+00
1.753935e-01 8.200000e-01 0.000000e+00
2.342198e-01 7.177107e-01 0.000000e+00
2.338798e-01 8.200000e-01 0.000000e+00
2.342198e-01 7.177107e-01 0.000000e+00
2.338798e-01 8.200000e-01 0.000000e+00
2.927364e-01 7.181491e-01 0.000000e+00
2.924057e-01 8.200000e-01 0.000000e+00
2.927364e-01 7.181491e-01 0.000000e+00
2.924057e-01 8.200000e-01 0.000000e+00
3.512010e-01 7.187024e-01 0.000000e+00
3.510184e-01 8.200000e-01 0.000000e+00
3.512010e-01 7.187024e-01 0.000000e+00
3.510184e-01 8.200000e-01 0.000000e+00
4.095586e-01 7.193844e-01 0.000000e+00
4.098086e-01 8.200000e-01 0.000000e+00
4.095586e-01 7.193844e-01 0.000000e+00
4.098086e-01 8.200000e-01 0.000000e+00
4.676968e-01 7.202039e-01 0.000000e+00
4.689357e-01 8.200000e-01 0.000000e+00
4.676968e-01 7.202039e-01 0.000000e+00
4.689357e-01 8.200000e-01 0.000000e+00
5.253906e-01 7.211284e-01 0.000000e+00
5.286440e-01 8.200000e-01 0.000000e+00
5.253906e-01 7.211284e-01 0.000000e+00
5.286440e-01 8.200000e-01 0.000000e+00
5.822118e-01 7.219558e-01 0.000000e+00
5.892057e-01 8.200000e-01 0.000000e+00
5.822118e-01 7.219558e-01 0.000000e+00
5.892057e-01 8.200000e-01 0.000000e+00
6.375466e-01 7.220708e-01 0.000000e+00
6.505035e-01 8.200000e-01 0.000000e+00
6.375466e-01 7.220708e-01 0.000000e+00
6.505035e-01 8.200000e-01 0.000000e+00
6.919941e-01 7.197043e-01 0.000000e+00
7.106991e-01 8.173413e-01 0.000000e+00
6.919941e-01 7.197043e-01 0.000000e+00
7.106991e-01 8.173413e-01 0.000000e+00
7.443756e-01 7.108665e-01 0.000000e+00
7.703669e-01 8.055554e-01 0.000000e+00
7.443756e-01 7.108665e-01 0.000000e+00
7.703669e-01 8.055554e-01 0.000000e+00
7.949022e-01 6.963999e-01 0.000000e+00
8.290933e-01 7.873071e-01 0.000000e+00
7.949022e-01 6.963999e-01 0.000000e+00
8.290933e-01 7.873071e-01 0.000000e+00
8.434816e-01 6.763588e-01 0.000000e+00
8.857311e-01 7.627907e-01 0.000000e+00
8.434816e-01 6.763588e-01 0.000000e+00
8.857311e-01 7.627907e-01 0.000000e+00
8.898872e-01 6.512887e-01 0.000000e+00
9.396203e-01 7.326926e-01 0.000000e+00
8.898872e-01 6.512887e-01 0.000000e+00
9.396203e-01 7.326926e-01 0.000000e+00
9.338719e-01 6.216622e-01 0.000000e+00
9.903387e-01 6.976615e-01 0.000000e+00
9.338719e-01 6.216622e-01 0.000000e+00
9.903387e-01 6.976615e-01 0.000000e+00
9.752175e-01 5.879517e-01 0.000000e+00
1.037640e+00 6.583089e-01 0.000000e+00
9.752175e-01 5.879517e-01 0.000000e+00
1.037640e+00 6.583089e-01 0.000000e+00
1.013739e+00 5.506013e-01 0.000000e+00
1.081378e+00 6.151785e-01 0.000000e+00
1.013739e+00 5.506013e-01 0.000000e+00
1.081378e+00 6.151785e-01 0.000000e+00
1.049285e+00 5.100254e-01 0.000000e+00
1.121461e+00 5.687495e-01 0.000000e+00
1.049285e+00 5.100254e-01 0.000000e+00
1.121461e+00 5.687495e-01 0.000000e+00
1.081733e+00 4.666072e-01 0.000000e+00
1.157835e+00 5.194452e-01 0.000000e+00
1.081733e+00 4.666072e-01 0.000000e+00
1.157835e+00 5.194452e-01 0.000000e+00
1.110983e+00 4.207019e-01 0.000000e+00
1.190458e+00 4.676435e-01 0.000000e+00
1.110983e+00 4.207019e-01 0.000000e+00
1.190458e+00 4.676435e-01 0.000000e+00
1.136953e+00 3.726395e-01 0.000000e+00
1.219303e+00 4.136869e-01 0.000000e+00
1.136953e+00 3.726395e-01 0.000000e+00
1.219303e+00 4.136869e-01 0.000000e+00
1.159579e+00 3.227290e-01 0.000000e+00
1.244348e+00 3.578899e-01 0.000000e+00
1.159579e+00 3.227290e-01 0.000000e+00
1.244348e+00 3.578899e-01 0.000000e+00
1.178808e+00 2.712625e-01 0.000000e+00
1.265572e+00 3.005461e-01 0.000000e+00
1.178808e+00 2.712625e-01 0.000000e+00
1.265572e+00 3.005461e-01 0.000000e+00
1.194595e+00 2.185180e-01 0.000000e+00
1.282960e+00 2.419334e-01 0.000000e+00
1.194595e+00 2.185180e-01 0.000000e+00
1.282960e+00 2.419334e-01 0.000000e+00
1.206907e+00 1.647629e-01 0.000000e+00
1.296499e+00 1.823176e-01 0.000000e+00
1.206907e+00 1.647629e-01 0.000000e+00
1.296499e+00 1.823176e-01 0.000000e+00
1.215720e+00 1.102564e-01 0.000000e+00
1.306177e+00 1.219564e-01 0.000000e+00
1.215720e+00 1.102564e-01 0.000000e+00
1.306177e+00 1.219564e-01 0.000000e+00
1.221014e+00 5.525222e-02 0.000000e+00
1.311987e+00 6.110123e-02 0.000000e+00
1.221014e+00 5.525222e-02 0.000000e+00
1.311987e+00 6.110123e-02 0.000000e+00
1.222781e+00 5.987450e-12 0.000000e+00
1.313925e+00 6.433750e-12 0.000000e+00
</DataArray>
</Points>
<Cells>
<DataArray type="Int32" Name="connectivity" format="ascii">
0 1 3 2
4 5 7 6
8 9 11 10
12 13 15 14
16 17 19 18
20 21 23 22
24 25 27 26
28 29 31 30
32 33 35 34
36 37 39 38
40 41 43 42
44 45 47 46
48 49 51 50
52 53 55 54
56 57 59 58
60 61 63 62
64 65 67 66
68 69 71 70
72 73 75 74
76 77 79 78
80 81 83 82
84 85 87 86
88 89 91 90
92 93 95 94
96 97 99 98
100 101 103 102
104 105 107 106
108 109 111 110
112 113 115 114
116 117 119 118
</DataArray>
<DataArray type="Int32" Name="offsets" format="ascii">
4
8
12
16
20
24
28
32
36
40
44
48
52
56
60
64
68
72
76
80
84
88
92
96
100
104
108
112
116
120
</DataArray>
<DataArray type="UInt8" Name="types" format="ascii">
9
9
9
9
9
9
9
9
9
9
9
9
9
9
9
9
9
9
9
9
9
9
9
9
9
9
9
9
9
9
</DataArray>
</Cells>
<PointData>
<DataArray type="Float32" Name="V1" format="ascii">
1.422131e+01
-5.381009e-01
1.424170e+01
-5.177119e-01
1.426722e+01
-5.355683e-01
1.432114e+01
-4.816442e-01
1.437332e+01
-5.172603e-01
1.446433e+01
-4.262560e-01
1.454003e+01
-4.788513e-01
1.466874e+01
-3.501420e-01
1.476308e+01
-4.166006e-01
1.493059e+01
-2.490876e-01
1.503120e+01
-3.215510e-01
1.523973e+01
-1.130208e-01
1.531814e+01
-1.731861e-01
1.557265e+01
8.132392e-02
1.556782e+01
7.386923e-02
1.588008e+01
3.861280e-01
1.566959e+01
5.171116e-01
1.606783e+01
9.153453e-01
1.542395e+01
1.357854e+00
1.598443e+01
1.918328e+00
1.449847e+01
3.040624e+00
1.543541e+01
3.977567e+00
1.280173e+01
6.555576e+00
1.405599e+01
7.809843e+00
1.252563e+01
8.730232e+00
1.307963e+01
9.284228e+00
1.259636e+01
9.681655e+00
1.314263e+01
1.022793e+01
1.300699e+01
1.034620e+01
1.353703e+01
1.087624e+01
1.361122e+01
1.081812e+01
1.411125e+01
1.131815e+01
1.428783e+01
1.117195e+01
1.474737e+01
1.163149e+01
1.497115e+01
1.144639e+01
1.538589e+01
1.186113e+01
1.562368e+01
1.166601e+01
1.599292e+01
1.203526e+01
1.622595e+01
1.184595e+01
1.655114e+01
1.217114e+01
1.676901e+01
1.199592e+01
1.705260e+01
1.227951e+01
1.724995e+01
1.212224e+01
1.749479e+01
1.236709e+01
1.766922e+01
1.222920e+01
1.787815e+01
1.243814e+01
1.802894e+01
1.231976e+01
1.820459e+01
1.249541e+01
1.833193e+01
1.239601e+01
1.847663e+01
1.254071e+01
1.858114e+01
1.245952e+01
1.869686e+01
1.257524e+01
1.877930e+01
1.251143e+01
1.886766e+01
1.259979e+01
1.892876e+01
1.255262e+01
1.899099e+01
1.261486e+01
1.903136e+01
1.258376e+01
1.906835e+01
1.262075e+01
1.908843e+01
1.260530e+01
1.910070e+01
1.261757e+01
</DataArray>
<DataArray type="Float32" Name="V2" format="ascii">
7.169456e-01
8.200000e-01
7.190832e-01
8.219358e-01
7.190832e-01
8.219358e-01
7.254553e-01
8.277298e-01
7.254553e-01
8.277298e-01
7.360267e-01
8.373420e-01
7.360267e-01
8.373420e-01
7.507240e-01
8.507074e-01
7.507240e-01
8.507074e-01
7.694445e-01
8.677393e-01
7.694445e-01
8.677393e-01
7.920536e-01
8.883370e-01
7.920536e-01
8.883370e-01
8.183759e-01
9.123982e-01
8.183759e-01
9.123982e-01
8.481684e-01
9.398406e-01
8.481684e-01
9.398406e-01
8.810525e-01
9.706247e-01
8.810525e-01
9.706247e-01
9.163380e-01
1.004744e+00
9.163380e-01
1.004744e+00
9.528123e-01
1.041999e+00
9.528123e-01
1.041999e+00
9.889969e-01
1.078981e+00
9.889969e-01
1.078981e+00
1.020898e+00
1.110842e+00
1.020898e+00
1.110842e+00
1.049419e+00
1.139855e+00
1.049419e+00
1.139855e+00
1.074689e+00
1.165681e+00
1.074689e+00
1.165681e+00
1.097112e+00
1.188541e+00
1.097112e+00
1.188541e+00
1.116979e+00
1.208690e+00
1.116979e+00
1.208690e+00
1.134557e+00
1.226413e+00
1.134557e+00
1.226413e+00
1.150072e+00
1.241970e+00
1.150072e+00
1.241970e+00
1.163720e+00
1.255589e+00
1.163720e+00
1.255589e+00
1.175666e+00
1.267461e+00
1.175666e+00
1.267461e+00
1.186048e+00
1.277745e+00
1.186048e+00
1.277745e+00
1.194979e+00
1.286570e+00
1.194979e+00
1.286570e+00
1.202554e+00
1.294039e+00
1.202554e+00
1.294039e+00
1.208849e+00
1.300236e+00
1.208849e+00
1.300236e+00
1.213922e+00
1.305225e+00
1.213922e+00
1.305225e+00
1.217823e+00
1.309057e+00
1.217823e+00
1.309057e+00
1.220585e+00
1.311770e+00
1.220585e+00
1.311770e+00
1.222233e+00
1.313387e+00
1.222233e+00
1.313387e+00
1.222781e+00
1.313925e+00
</DataArray>
<DataArray type="Float32" Name="V3" format="ascii">
0.000000e+00
0.000000e+00
2.095719e-02
1.546559e-02
2.095719e-02
1.546559e-02
4.151998e-02
3.057011e-02
4.151998e-02
3.057011e-02
6.129248e-02
4.495782e-02
6.129248e-02
4.495782e-02
7.988109e-02
5.828134e-02
7.988109e-02
5.828134e-02
9.689095e-02
7.021059e-02
9.689095e-02
7.021059e-02
1.119207e-01
8.044443e-02
1.119207e-01
8.044443e-02
1.245516e-01
8.872759e-02
1.245516e-01
8.872759e-02
1.343289e-01
9.487007e-02
1.343289e-01
9.487007e-02
1.407410e-01
9.875304e-02
1.407410e-01
9.875304e-02
1.432323e-01
1.002671e-01
1.432323e-01
1.002671e-01
1.414236e-01
9.895415e-02
1.414236e-01
9.895415e-02
1.368034e-01
9.454650e-02
1.368034e-01
9.454650e-02
1.311257e-01
9.173514e-02
1.311257e-01
9.173514e-02
1.247449e-01
8.932507e-02
1.247449e-01
8.932507e-02
1.181736e-01
8.693197e-02
1.181736e-01
8.693197e-02
1.114490e-01
8.423203e-02
1.114490e-01
8.423203e-02
1.045824e-01
8.105553e-02
1.045824e-01
8.105553e-02
9.755560e-02
7.732657e-02
9.755560e-02
7.732657e-02
9.034883e-02
7.302842e-02
9.034883e-02
7.302842e-02
8.294776e-02
6.817924e-02
8.294776e-02
6.817924e-02
7.534644e-02
6.281685e-02
7.534644e-02
6.281685e-02
6.754705e-02
5.698928e-02
6.754705e-02
5.698928e-02
5.955874e-02
5.074927e-02
5.955874e-02
5.074927e-02
5.139620e-02
4.415110e-02
5.139620e-02
4.415110e-02
4.307837e-02
3.724890e-02
4.307837e-02
3.724890e-02
3.462736e-02
3.009590e-02
3.462736e-02
3.009590e-02
2.606754e-02
2.274411e-02
2.606754e-02
2.274411e-02
1.742488e-02
1.524438e-02
1.742488e-02
1.524438e-02
8.726462e-03
7.646616e-03
8.726462e-03
7.646616e-03
0.000000e+00
0.000000e+00
</DataArray>
<DataArray type="Float32" Name="V4" format="ascii">
8.500000e-01
1.000000e+00
8.500000e-01
1.000000e+00
8.500000e-01
1.000000e+00
8.500000e-01
1.000000e+00
8.500000e-01
1.000000e+00
8.500000e-01
1.000000e+00
8.500000e-01
1.000000e+00
8.500000e-01
1.000000e+00
8.500000e-01
1.000000e+00
8.500000e-01
1.000000e+00
8.500000e-01
1.000000e+00
8.500000e-01
1.000000e+00
8.500000e-01
1.000000e+00
8.500000e-01
1.000000e+00
8.500000e-01
1.000000e+00
8.500000e-01
1.000000e+00
8.500000e-01
1.000000e+00
8.500000e-01
1.000000e+00
8.500000e-01
1.000000e+00
8.500000e-01
1.000000e+00
8.500000e-01
1.000000e+00
8.500000e-01
1.000000e+00
8.500000e-01
1.000000e+00
8.500000e-01
1.000000e+00
8.500000e-01
1.000000e+00
8.500000e-01
1.000000e+00
8.500000e-01
1.000000e+00
8.500000e-01
1.000000e+00
8.500000e-01
1.000000e+00
8.500000e-01
1.000000e+00
8.500000e-01
1.000000e+00
8.500000e-01
1.000000e+00
8.500000e-01
1.000000e+00
8.500000e-01
1.000000e+00
8.500000e-01
1.000000e+00
8.500000e-01
1.000000e+00
8.500000e-01
1.000000e+00
8.500000e-01
1.000000e+00
8.500000e-01
1.000000e+00
8.500000e-01
1.000000e+00
8.500000e-01
1.000000e+00
8.500000e-01
1.000000e+00
8.500000e-01
1.000000e+00
8.500000e-01
1.000000e+00
8.500000e-01
1.000000e+00
8.500000e-01
1.000000e+00
8.500000e-01
1.000000e+00
8.500000e-01
1.000000e+00
8.500000e-01
1.000000e+00
8.500000e-01
1.000000e+00
8.500000e-01
1.000000e+00
8.500000e-01
1.000000e+00
8.500000e-01
1.000000e+00
8.500000e-01
1.000000e+00
8.500000e-01
1.000000e+00
8.500000e-01
1.000000e+00
8.500000e-01
1.000000e+00
8.500000e-01
1.000000e+00
8.500000e-01
1.000000e+00
8.500000e-01
1.000000e+00
</DataArray>
<DataArray type="Float32" Name="V5" format="ascii">
0.000000e+00
0.000000e+00
5.235988e-02
5.235988e-02
5.235988e-02
5.235988e-02
1.047198e-01
1.047198e-01
1.047198e-01
1.047198e-01
1.570796e-01
1.570796e-01
1.570796e-01
1.570796e-01
2.094395e-01
2.094395e-01
2.094395e-01
2.094395e-01
2.617994e-01
2.617994e-01
2.617994e-01
2.617994e-01
3.141593e-01
3.141593e-01
3.141593e-01
3.141593e-01
3.665191e-01
3.665191e-01
3.665191e-01
3.665191e-01
4.188790e-01
4.188790e-01
4.188790e-01
4.188790e-01
4.712389e-01
4.712389e-01
4.712389e-01
4.712389e-01
5.235988e-01
5.235988e-01
5.235988e-01
5.235988e-01
5.759587e-01
5.759587e-01
5.759587e-01
5.759587e-01
6.283185e-01
6.283185e-01
6.283185e-01
6.283185e-01
6.806784e-01
6.806784e-01
6.806784e-01
6.806784e-01
7.330383e-01
7.330383e-01
7.330383e-01
7.330383e-01
7.853982e-01
7.853982e-01
7.853982e-01
7.853982e-01
8.377580e-01
8.377580e-01
8.377580e-01
8.377580e-01
8.901179e-01
8.901179e-01
8.901179e-01
8.901179e-01
9.424778e-01
9.424778e-01
9.424778e-01
9.424778e-01
9.948377e-01
9.948377e-01
9.948377e-01
9.948377e-01
1.047198e+00
1.047198e+00
1.047198e+00
1.047198e+00
1.099557e+00
1.099557e+00
1.099557e+00
1.099557e+00
1.151917e+00
1.151917e+00
1.151917e+00
1.151917e+00
1.204277e+00
1.204277e+00
1.204277e+00
1.204277e+00
1.256637e+00
1.256637e+00
1.256637e+00
1.256637e+00
1.308997e+00
1.308997e+00
1.308997e+00
1.308997e+00
1.361357e+00
1.361357e+00
1.361357e+00
1.361357e+00
1.413717e+00
1.413717e+00
1.413717e+00
1.413717e+00
1.466077e+00
1.466077e+00
1.466077e+00
1.466077e+00
1.518436e+00
1.518436e+00
1.518436e+00
1.518436e+00
1.570796e+00
1.570796e+00
</DataArray>
</PointData>
</Piece></UnstructuredGrid>
</VTKFile>
