<?xml version="1.0"?>
<VTKFile type="UnstructuredGrid" version="0.1" byte_order="LittleEndian" compressor="vtkZLibDataCompressor">
<UnstructuredGrid>
<Piece NumberOfPoints="120" NumberOfCells="30">
<Points>
<DataArray type="Float32" NumberOfComponents="3" format="ascii">
0.000000e+00 4.261640e-01 0.000000e+00
0.000000e+00 4.800000e-01 0.000000e+00
8.096027e-02 4.262040e-01 0.000000e+00
8.094050e-02 4.800000e-01 0.000000e+00
8.096027e-02 4.262040e-01 0.000000e+00
8.094050e-02 4.800000e-01 0.000000e+00
1.619109e-01 4.262630e-01 0.000000e+00
1.618705e-01 4.800000e-01 0.000000e+00
1.619109e-01 4.262630e-01 0.000000e+00
1.618705e-01 4.800000e-01 0.000000e+00
2.428383e-01 4.263606e-01 0.000000e+00
2.427776e-01 4.800000e-01 0.000000e+00
2.428383e-01 4.263606e-01 0.000000e+00
2.427776e-01 4.800000e-01 0.000000e+00
3.237308e-01 4.264970e-01 0.000000e+00
3.236501e-01 4.800000e-01 0.000000e+00
3.237308e-01 4.264970e-01 0.000000e+00
3.236501e-01 4.800000e-01 0.000000e+00
4.045764e-01 4.266718e-01 0.000000e+00
4.044760e-01 4.800000e-01 0.000000e+00
4.045764e-01 4.266718e-01 0.000000e+00
4.044760e-01 4.800000e-01 0.000000e+00
4.853625e-01 4.268844e-01 0.000000e+00
4.852429e-01 4.800000e-01 0.000000e+00
4.853625e-01 4.268844e-01 0.000000e+00
4.852429e-01 4.800000e-01 0.000000e+00
5.660758e-01 4.271341e-01 0.000000e+00
5.659377e-01 4.800000e-01 0.000000e+00
5.660758e-01 4.271341e-01 0.000000e+00
5.659377e-01 4.800000e-01 0.000000e+00
6.467022e-01 4.274201e-01 0.000000e+00
6.465471e-01 4.800000e-01 0.000000e+00
6.467022e-01 4.274201e-01 0.000000e+00
6.465471e-01 4.800000e-01 0.000000e+00
7.272269e-01 4.277415e-01 0.000000e+00
7.270570e-01 4.800000e-01 0.000000e+00
7.272269e-01 4.277415e-01 0.000000e+00
7.270570e-01 4.800000e-01 0.000000e+00
8.076334e-01 4.280973e-01 0.000000e+00
8.074526e-01 4.800000e-01 0.000000e+00
8.076334e-01 4.280973e-01 0.000000e+00
8.074526e-01 4.800000e-01 0.000000e+00
8.879041e-01 4.284863e-01 0.000000e+00
8.877193e-01 4.800000e-01 0.000000e+00
8.879041e-01 4.284863e-01 0.000000e+00
8.877193e-01 4.800000e-01 0.000000e+00
9.680189e-01 4.289073e-01 0.000000e+00
9.678425e-01 4.800000e-01 0.000000e+00
9.680189e-01 4.289073e-01 0.000000e+00
9.678425e-01 4.800000e-01 0.000000e+00
1.047955e+00 4.293584e-01 0.000000e+00
1.047809e+00 4.800000e-01 0.000000e+00
1.047955e+00 4.293584e-01 0.000000e+00
1.047809e+00 4.800000e-01 0.000000e+00
1.127685e+00 4.298377e-01 0.000000e+00
1.127609e+00 4.800000e-01 0.000000e+00
1.127685e+00 4.298377e-01 0.000000e+00
1.127609e+00 4.800000e-01 0.000000e+00
1.207174e+00 4.303419e-01 0.000000e+00
1.207241e+00 4.800000e-01 0.000000e+00
1.207174e+00 4.303419e-01 0.000000e+00
1.207241e+00 4.800000e-01 0.000000e+00
1.286377e+00 4.308661e-01 0.000000e+00
1.286718e+00 4.800000e-01 0.000000e+00
1.286377e+00 4.308661e-01 0.000000e+00
1.286718e+00 4.800000e-01 0.000000e+00
1.365227e+00 4.314025e-01 0.000000e+00
1.366081e+00 4.800000e-01 0.000000e+00
1.365227e+00 4.314025e-01 0.000000e+00
1.366081e+00 4.800000e-01 0.000000e+00
1.443622e+00 4.319405e-01 0.000000e+00
1.445430e+00 4.800000e-01 0.000000e+00
1.443622e+00 4.319405e-01 0.000000e+00
1.445430e+00 4.800000e-01 0.000000e+00
1.521390e+00 4.324743e-01 0.000000e+00
1.524967e+00 4.800000e-01 0.000000e+00
1.521390e+00 4.324743e-01 0.000000e+00
1.524967e+00 4.800000e-01 0.000000e+00
1.598206e+00 4.330355e-01 0.000000e+00
1.605070e+00 4.800000e-01 0.000000e+00
1.598206e+00 4.330355e-01 0.000000e+00
1.605070e+00 4.800000e-01 0.000000e+00
1.673470e+00 4.337023e-01 0.000000e+00
1.686091e+00 4.800000e-01 0.000000e+00
1.673470e+00 4.337023e-01 0.000000e+00
1.686091e+00 4.800000e-01 0.000000e+00
1.747004e+00 4.305281e-01 0.000000e+00
1.763368e+00 4.744925e-01 0.000000e+00
1.747004e+00 4.305281e-01 0.000000e+00
1.763368e+00 4.744925e-01 0.000000e+00
1.815925e+00 4.082079e-01 0.000000e+00
1.837377e+00 4.488800e-01 0.000000e+00
1.815925e+00 4.082079e-01 0.000000e+00
1.837377e+00 4.488800e-01 0.000000e+00
1.877601e+00 3.720284e-01 0.000000e+00
1.904659e+00 4.083861e-01 0.000000e+00
1.877601e+00 3.720284e-01 0.000000e+00
1.904659e+00 4.083861e-01 0.000000e+00
1.930772e+00 3.249014e-01 0.000000e+00
1.962946e+00 3.560177e-01 0.000000e+00
1.930772e+00 3.249014e-01 0.000000e+00
1.962946e+00 3.560177e-01 0.000000e+00
1.974779e+00 2.692739e-01 0.000000e+00
2.011154e+00 2.945444e-01 0.000000e+00
1.974779e+00 2.692739e-01 0.000000e+00
2.011154e+00 2.945444e-01 0.000000e+00
2.009244e+00 2.072336e-01 0.000000e+00
2.048805e+00 2.263318e-01 0.000000e+00
2.009244e+00 2.072336e-01 0.000000e+00
2.048805e+00 2.263318e-01 0.000000e+00
2.033959e+00 1.406058e-01 0.000000e+00
2.075721e+00 1.533815e-01 0.000000e+00
2.033959e+00 1.406058e-01 0.000000e+00
2.075721e+00 1.533815e-01 0.000000e+00
2.048817e+00 7.102525e-02 0.000000e+00
2.091865e+00 7.742132e-02 0.000000e+00
2.048817e+00 7.102525e-02 0.000000e+00
2.091865e+00 7.742132e-02 0.000000e+00
2.053774e+00 1.005649e-11 0.000000e+00
2.097244e+00 1.026934e-11 0.000000e+00
</DataArray>
</Points>
<Cells>
<DataArray type="Int32" Name="connectivity" format="ascii">
0 1 3 2
4 5 7 6
8 9 11 10
12 13 15 14
16 17 19 18
20 21 23 22
24 25 27 26
28 29 31 30
32 33 35 34
36 37 39 38
40 41 43 42
44 45 47 46
48 49 51 50
52 53 55 54
56 57 59 58
60 61 63 62
64 65 67 66
68 69 71 70
72 73 75 74
76 77 79 78
80 81 83 82
84 85 87 86
88 89 91 90
92 93 95 94
96 97 99 98
100 101 103 102
104 105 107 106
108 109 111 110
112 113 115 114
116 117 119 118
</DataArray>
<DataArray type="Int32" Name="offsets" format="ascii">
4
8
12
16
20
24
28
32
36
40
44
48
52
56
60
64
68
72
76
80
84
88
92
96
100
104
108
112
116
120
</DataArray>
<DataArray type="UInt8" Name="types" format="ascii">
9
9
9
9
9
9
9
9
9
9
9
9
9
9
9
9
9
9
9
9
9
9
9
9
9
9
9
9
9
9
</DataArray>
</Cells>
<PointData>
<DataArray type="Float32" Name="V1" format="ascii">
1.920065e+02
6.359136e+00
1.921989e+02
6.551538e+00
1.925036e+02
6.354270e+00
1.930563e+02
6.906955e+00
1.936710e+02
6.506842e+00
1.946043e+02
7.440145e+00
1.955325e+02
6.832389e+00
1.968553e+02
8.155242e+00
1.981075e+02
7.333885e+00
1.998355e+02
9.061955e+00
2.014249e+02
8.017791e+00
2.035791e+02
1.017201e+01
2.055230e+02
8.893255e+00
2.081300e+02
1.150028e+01
2.104493e+02
9.972392e+00
2.135424e+02
1.306546e+01
2.162621e+02
1.127091e+01
2.198820e+02
1.489084e+01
2.230309e+02
1.280903e+01
2.272275e+02
1.700568e+01
2.308372e+02
1.461299e+01
2.356714e+02
1.944718e+01
2.397743e+02
1.671752e+01
2.453207e+02
2.226390e+01
2.499460e+02
1.917011e+01
2.562972e+02
2.552130e+01
2.614612e+02
2.203851e+01
2.687342e+02
2.931156e+01
2.744219e+02
2.542425e+01
2.827688e+02
3.377109e+01
2.888980e+02
2.948833e+01
2.985219e+02
3.911225e+01
3.048740e+02
3.450117e+01
3.160541e+02
4.568120e+01
3.221465e+02
4.094697e+01
3.352608e+02
5.406130e+01
3.401275e+02
4.975897e+01
3.556214e+02
6.525282e+01
3.574750e+02
6.288082e+01
3.755906e+02
8.099646e+01
3.709406e+02
8.468161e+01
3.916311e+02
1.053721e+02
3.731593e+02
1.261578e+02
4.016676e+02
1.546661e+02
3.940792e+02
1.556956e+02
4.172908e+02
1.789072e+02
4.223171e+02
1.754868e+02
4.443148e+02
1.974845e+02
4.537836e+02
1.912219e+02
4.740715e+02
2.115098e+02
4.847206e+02
2.041071e+02
5.024976e+02
2.218841e+02
5.124097e+02
2.147251e+02
5.269289e+02
2.292443e+02
5.350180e+02
2.232641e+02
5.457300e+02
2.339762e+02
5.513876e+02
2.297391e+02
5.579411e+02
2.362927e+02
5.608411e+02
2.341070e+02
5.630456e+02
2.363115e+02
</DataArray>
<DataArray type="Float32" Name="V2" format="ascii">
4.261640e-01
4.800000e-01
4.298571e-01
4.835783e-01
4.298571e-01
4.835783e-01
4.408522e-01
4.942906e-01
4.408522e-01
4.942906e-01
4.590997e-01
5.120692e-01
4.590997e-01
5.120692e-01
4.844845e-01
5.368015e-01
4.844845e-01
5.368015e-01
5.168454e-01
5.683305e-01
5.168454e-01
5.683305e-01
5.559765e-01
6.064554e-01
5.559765e-01
6.064554e-01
6.016274e-01
6.509326e-01
6.016274e-01
6.509326e-01
6.535052e-01
7.014762e-01
6.535052e-01
7.014762e-01
7.112745e-01
7.577601e-01
7.112745e-01
7.577601e-01
7.745598e-01
8.194185e-01
7.745598e-01
8.194185e-01
8.429461e-01
8.860485e-01
8.429461e-01
8.860485e-01
9.159805e-01
9.572117e-01
9.159805e-01
9.572117e-01
9.931735e-01
1.032438e+00
9.931735e-01
1.032438e+00
1.074000e+00
1.111227e+00
1.074000e+00
1.111227e+00
1.157898e+00
1.193060e+00
1.157898e+00
1.193060e+00
1.244270e+00
1.277400e+00
1.244270e+00
1.277400e+00
1.332471e+00
1.363718e+00
1.332471e+00
1.363718e+00
1.421803e+00
1.451514e+00
1.421803e+00
1.451514e+00
1.511488e+00
1.540372e+00
1.511488e+00
1.540372e+00
1.600605e+00
1.630031e+00
1.600605e+00
1.630031e+00
1.687970e+00
1.720234e+00
1.687970e+00
1.720234e+00
1.771079e+00
1.803910e+00
1.771079e+00
1.803910e+00
1.841601e+00
1.876204e+00
1.841601e+00
1.876204e+00
1.900668e+00
1.937636e+00
1.900668e+00
1.937636e+00
1.949073e+00
1.988204e+00
1.949073e+00
1.988204e+00
1.987610e+00
2.028445e+00
1.987610e+00
2.028445e+00
2.016926e+00
2.058987e+00
2.016926e+00
2.058987e+00
2.037514e+00
2.080383e+00
2.037514e+00
2.080383e+00
2.049726e+00
2.093050e+00
2.049726e+00
2.093050e+00
2.053774e+00
2.097244e+00
</DataArray>
<DataArray type="Float32" Name="V3" format="ascii">
0.000000e+00
0.000000e+00
5.854352e-02
5.570831e-02
5.854352e-02
5.570831e-02
1.164673e-01
1.108101e-01
1.164673e-01
1.108101e-01
1.731511e-01
1.647001e-01
1.731511e-01
1.647001e-01
2.279828e-01
2.167800e-01
2.279828e-01
2.167800e-01
2.803600e-01
2.664607e-01
2.803600e-01
2.664607e-01
3.296926e-01
3.131652e-01
3.296926e-01
3.131652e-01
3.754061e-01
3.563318e-01
3.754061e-01
3.563318e-01
4.169445e-01
3.954166e-01
4.169445e-01
3.954166e-01
4.537733e-01
4.298971e-01
4.537733e-01
4.298971e-01
4.853824e-01
4.592745e-01
4.853824e-01
4.592745e-01
5.112887e-01
4.830773e-01
5.112887e-01
4.830773e-01
5.310384e-01
5.008641e-01
5.310384e-01
5.008641e-01
5.442099e-01
5.122268e-01
5.442099e-01
5.122268e-01
5.504155e-01
5.167944e-01
5.504155e-01
5.167944e-01
5.493032e-01
5.142373e-01
5.493032e-01
5.142373e-01
5.405580e-01
5.042728e-01
5.405580e-01
5.042728e-01
5.239023e-01
4.866726e-01
5.239023e-01
4.866726e-01
4.990927e-01
4.612740e-01
4.990927e-01
4.612740e-01
4.659052e-01
4.279949e-01
4.659052e-01
4.279949e-01
4.240834e-01
3.868428e-01
4.240834e-01
3.868428e-01
3.733080e-01
3.377863e-01
3.733080e-01
3.377863e-01
3.172637e-01
2.837558e-01
3.172637e-01
2.837558e-01
2.696745e-01
2.393915e-01
2.696745e-01
2.393915e-01
2.263906e-01
2.001736e-01
2.263906e-01
2.001736e-01
1.858898e-01
1.641610e-01
1.858898e-01
1.641610e-01
1.471899e-01
1.300347e-01
1.471899e-01
1.300347e-01
1.096328e-01
9.695842e-02
1.096328e-01
9.695842e-02
7.277099e-02
6.443062e-02
7.277099e-02
6.443062e-02
3.629889e-02
3.216452e-02
3.629889e-02
3.216452e-02
0.000000e+00
0.000000e+00
</DataArray>
<DataArray type="Float32" Name="V4" format="ascii">
8.500000e-01
1.000000e+00
8.500000e-01
1.000000e+00
8.500000e-01
1.000000e+00
8.500000e-01
1.000000e+00
8.500000e-01
1.000000e+00
8.500000e-01
1.000000e+00
8.500000e-01
1.000000e+00
8.500000e-01
1.000000e+00
8.500000e-01
1.000000e+00
8.500000e-01
1.000000e+00
8.500000e-01
1.000000e+00
8.500000e-01
1.000000e+00
8.500000e-01
1.000000e+00
8.500000e-01
1.000000e+00
8.500000e-01
1.000000e+00
8.500000e-01
1.000000e+00
8.500000e-01
1.000000e+00
8.500000e-01
1.000000e+00
8.500000e-01
1.000000e+00
8.500000e-01
1.000000e+00
8.500000e-01
1.000000e+00
8.500000e-01
1.000000e+00
8.500000e-01
1.000000e+00
8.500000e-01
1.000000e+00
8.500000e-01
1.000000e+00
8.500000e-01
1.000000e+00
8.500000e-01
1.000000e+00
8.500000e-01
1.000000e+00
8.500000e-01
1.000000e+00
8.500000e-01
1.000000e+00
8.500000e-01
1.000000e+00
8.500000e-01
1.000000e+00
8.500000e-01
1.000000e+00
8.500000e-01
1.000000e+00
8.500000e-01
1.000000e+00
8.500000e-01
1.000000e+00
8.500000e-01
1.000000e+00
8.500000e-01
1.000000e+00
8.500000e-01
1.000000e+00
8.500000e-01
1.000000e+00
8.500000e-01
1.000000e+00
8.500000e-01
1.000000e+00
8.500000e-01
1.000000e+00
8.500000e-01
1.000000e+00
8.500000e-01
1.000000e+00
8.500000e-01
1.000000e+00
8.500000e-01
1.000000e+00
8.500000e-01
1.000000e+00
8.500000e-01
1.000000e+00
8.500000e-01
1.000000e+00
8.500000e-01
1.000000e+00
8.500000e-01
1.000000e+00
8.500000e-01
1.000000e+00
8.500000e-01
1.000000e+00
8.500000e-01
1.000000e+00
8.500000e-01
1.000000e+00
8.500000e-01
1.000000e+00
8.500000e-01
1.000000e+00
8.500000e-01
1.000000e+00
8.500000e-01
1.000000e+00
</DataArray>
<DataArray type="Float32" Name="V5" format="ascii">
0.000000e+00
0.000000e+00
5.235988e-02
5.235988e-02
5.235988e-02
5.235988e-02
1.047198e-01
1.047198e-01
1.047198e-01
1.047198e-01
1.570796e-01
1.570796e-01
1.570796e-01
1.570796e-01
2.094395e-01
2.094395e-01
2.094395e-01
2.094395e-01
2.617994e-01
2.617994e-01
2.617994e-01
2.617994e-01
3.141593e-01
3.141593e-01
3.141593e-01
3.141593e-01
3.665191e-01
3.665191e-01
3.665191e-01
3.665191e-01
4.188790e-01
4.188790e-01
4.188790e-01
4.188790e-01
4.712389e-01
4.712389e-01
4.712389e-01
4.712389e-01
5.235988e-01
5.235988e-01
5.235988e-01
5.235988e-01
5.759587e-01
5.759587e-01
5.759587e-01
5.759587e-01
6.283185e-01
6.283185e-01
6.283185e-01
6.283185e-01
6.806784e-01
6.806784e-01
6.806784e-01
6.806784e-01
7.330383e-01
7.330383e-01
7.330383e-01
7.330383e-01
7.853982e-01
7.853982e-01
7.853982e-01
7.853982e-01
8.377580e-01
8.377580e-01
8.377580e-01
8.377580e-01
8.901179e-01
8.901179e-01
8.901179e-01
8.901179e-01
9.424778e-01
9.424778e-01
9.424778e-01
9.424778e-01
9.948377e-01
9.948377e-01
9.948377e-01
9.948377e-01
1.047198e+00
1.047198e+00
1.047198e+00
1.047198e+00
1.099557e+00
1.099557e+00
1.099557e+00
1.099557e+00
1.151917e+00
1.151917e+00
1.151917e+00
1.151917e+00
1.204277e+00
1.204277e+00
1.204277e+00
1.204277e+00
1.256637e+00
1.256637e+00
1.256637e+00
1.256637e+00
1.308997e+00
1.308997e+00
1.308997e+00
1.308997e+00
1.361357e+00
1.361357e+00
1.361357e+00
1.361357e+00
1.413717e+00
1.413717e+00
1.413717e+00
1.413717e+00
1.466077e+00
1.466077e+00
1.466077e+00
1.466077e+00
1.518436e+00
1.518436e+00
1.518436e+00
1.518436e+00
1.570796e+00
1.570796e+00
</DataArray>
</PointData>
</Piece></UnstructuredGrid>
</VTKFile>
