<?xml version="1.0"?>
<VTKFile type="UnstructuredGrid" version="0.1" byte_order="LittleEndian" compressor="vtkZLibDataCompressor">
<UnstructuredGrid>
<Piece NumberOfPoints="120" NumberOfCells="30">
<Points>
<DataArray type="Float32" NumberOfComponents="3" format="ascii">
0.000000e+00 1.014952e+00 0.000000e+00
0.000000e+00 1.120000e+00 0.000000e+00
5.560846e-02 1.014773e+00 0.000000e+00
6.002976e-02 1.120000e+00 0.000000e+00
5.560846e-02 1.014773e+00 0.000000e+00
6.002976e-02 1.120000e+00 0.000000e+00
1.106561e-01 1.013771e+00 0.000000e+00
1.199185e-01 1.120000e+00 0.000000e+00
1.106561e-01 1.013771e+00 0.000000e+00
1.199185e-01 1.120000e+00 0.000000e+00
1.655165e-01 1.010665e+00 0.000000e+00
1.789469e-01 1.117604e+00 0.000000e+00
1.655165e-01 1.010665e+00 0.000000e+00
1.789469e-01 1.117604e+00 0.000000e+00
2.193606e-01 1.003814e+00 0.000000e+00
2.379143e-01 1.109739e+00 0.000000e+00
2.193606e-01 1.003814e+00 0.000000e+00
2.379143e-01 1.109739e+00 0.000000e+00
2.724802e-01 9.937443e-01 0.000000e+00
2.966952e-01 1.098318e+00 0.000000e+00
2.724802e-01 9.937443e-01 0.000000e+00
2.966952e-01 1.098318e+00 0.000000e+00
3.248730e-01 9.804332e-01 0.000000e+00
3.548381e-01 1.083353e+00 0.000000e+00
3.248730e-01 9.804332e-01 0.000000e+00
3.548381e-01 1.083353e+00 0.000000e+00
3.764231e-01 9.640439e-01 0.000000e+00
4.120768e-01 1.065008e+00 0.000000e+00
3.764231e-01 9.640439e-01 0.000000e+00
4.120768e-01 1.065008e+00 0.000000e+00
4.269902e-01 9.446895e-01 0.000000e+00
4.681979e-01 1.043410e+00 0.000000e+00
4.269902e-01 9.446895e-01 0.000000e+00
4.681979e-01 1.043410e+00 0.000000e+00
4.764288e-01 9.224798e-01 0.000000e+00
5.230228e-01 1.018684e+00 0.000000e+00
4.764288e-01 9.224798e-01 0.000000e+00
5.230228e-01 1.018684e+00 0.000000e+00
5.245949e-01 8.975204e-01 0.000000e+00
5.763904e-01 9.909480e-01 0.000000e+00
5.245949e-01 8.975204e-01 0.000000e+00
5.763904e-01 9.909480e-01 0.000000e+00
5.713484e-01 8.699162e-01 0.000000e+00
6.281509e-01 9.603178e-01 0.000000e+00
5.713484e-01 8.699162e-01 0.000000e+00
6.281509e-01 9.603178e-01 0.000000e+00
6.165545e-01 8.397726e-01 0.000000e+00
6.781624e-01 9.269091e-01 0.000000e+00
6.165545e-01 8.397726e-01 0.000000e+00
6.781624e-01 9.269091e-01 0.000000e+00
6.600840e-01 8.071966e-01 0.000000e+00
7.262893e-01 8.908387e-01 0.000000e+00
6.600840e-01 8.071966e-01 0.000000e+00
7.262893e-01 8.908387e-01 0.000000e+00
7.018136e-01 7.722975e-01 0.000000e+00
7.724022e-01 8.522259e-01 0.000000e+00
7.018136e-01 7.722975e-01 0.000000e+00
7.724022e-01 8.522259e-01 0.000000e+00
7.416259e-01 7.351879e-01 0.000000e+00
8.163771e-01 8.111929e-01 0.000000e+00
7.416259e-01 7.351879e-01 0.000000e+00
8.163771e-01 8.111929e-01 0.000000e+00
7.794096e-01 6.959834e-01 0.000000e+00
8.580961e-01 7.678658e-01 0.000000e+00
7.794096e-01 6.959834e-01 0.000000e+00
8.580961e-01 7.678658e-01 0.000000e+00
8.150596e-01 6.548032e-01 0.000000e+00
8.974472e-01 7.223745e-01 0.000000e+00
8.150596e-01 6.548032e-01 0.000000e+00
8.974472e-01 7.223745e-01 0.000000e+00
8.484772e-01 6.117702e-01 0.000000e+00
9.343248e-01 6.748528e-01 0.000000e+00
8.484772e-01 6.117702e-01 0.000000e+00
9.343248e-01 6.748528e-01 0.000000e+00
8.795702e-01 5.670108e-01 0.000000e+00
9.686296e-01 6.254388e-01 0.000000e+00
8.795702e-01 5.670108e-01 0.000000e+00
9.686296e-01 6.254388e-01 0.000000e+00
9.082528e-01 5.206549e-01 0.000000e+00
1.000270e+00 5.742746e-01 0.000000e+00
9.082528e-01 5.206549e-01 0.000000e+00
1.000270e+00 5.742746e-01 0.000000e+00
9.344463e-01 4.728358e-01 0.000000e+00
1.029159e+00 5.215059e-01 0.000000e+00
9.344463e-01 4.728358e-01 0.000000e+00
1.029159e+00 5.215059e-01 0.000000e+00
9.580787e-01 4.236902e-01 0.000000e+00
1.055221e+00 4.672822e-01 0.000000e+00
9.580787e-01 4.236902e-01 0.000000e+00
1.055221e+00 4.672822e-01 0.000000e+00
9.790854e-01 3.733574e-01 0.000000e+00
1.078385e+00 4.117562e-01 0.000000e+00
9.790854e-01 3.733574e-01 0.000000e+00
1.078385e+00 4.117562e-01 0.000000e+00
9.974088e-01 3.219798e-01 0.000000e+00
1.098589e+00 3.550839e-01 0.000000e+00
9.974088e-01 3.219798e-01 0.000000e+00
1.098589e+00 3.550839e-01 0.000000e+00
1.012999e+00 2.697019e-01 0.000000e+00
1.115777e+00 2.974237e-01 0.000000e+00
1.012999e+00 2.697019e-01 0.000000e+00
1.115777e+00 2.974237e-01 0.000000e+00
1.025813e+00 2.166705e-01 0.000000e+00
1.129904e+00 2.389366e-01 0.000000e+00
1.025813e+00 2.166705e-01 0.000000e+00
1.129904e+00 2.389366e-01 0.000000e+00
1.035816e+00 1.630342e-01 0.000000e+00
1.140931e+00 1.797856e-01 0.000000e+00
1.035816e+00 1.630342e-01 0.000000e+00
1.140931e+00 1.797856e-01 0.000000e+00
1.042980e+00 1.089428e-01 0.000000e+00
1.148829e+00 1.201351e-01 0.000000e+00
1.042980e+00 1.089428e-01 0.000000e+00
1.148829e+00 1.201351e-01 0.000000e+00
1.047287e+00 5.454748e-02 0.000000e+00
1.153576e+00 6.015107e-02 0.000000e+00
1.047287e+00 5.454748e-02 0.000000e+00
1.153576e+00 6.015107e-02 0.000000e+00
1.048723e+00 5.135170e-12 0.000000e+00
1.155160e+00 5.656350e-12 0.000000e+00
</DataArray>
</Points>
<Cells>
<DataArray type="Int32" Name="connectivity" format="ascii">
0 1 3 2
4 5 7 6
8 9 11 10
12 13 15 14
16 17 19 18
20 21 23 22
24 25 27 26
28 29 31 30
32 33 35 34
36 37 39 38
40 41 43 42
44 45 47 46
48 49 51 50
52 53 55 54
56 57 59 58
60 61 63 62
64 65 67 66
68 69 71 70
72 73 75 74
76 77 79 78
80 81 83 82
84 85 87 86
88 89 91 90
92 93 95 94
96 97 99 98
100 101 103 102
104 105 107 106
108 109 111 110
112 113 115 114
116 117 119 118
</DataArray>
<DataArray type="Int32" Name="offsets" format="ascii">
4
8
12
16
20
24
28
32
36
40
44
48
52
56
60
64
68
72
76
80
84
88
92
96
100
104
108
112
116
120
</DataArray>
<DataArray type="UInt8" Name="types" format="ascii">
9
9
9
9
9
9
9
9
9
9
9
9
9
9
9
9
9
9
9
9
9
9
9
9
9
9
9
9
9
9
</DataArray>
</Cells>
<PointData>
<DataArray type="Float32" Name="V1" format="ascii">
1.091030e+01
2.629061e+00
1.109709e+01
2.815845e+00
1.022815e+01
3.436744e+00
1.071070e+01
3.919294e+00
9.245279e+00
5.346972e+00
9.755671e+00
5.857364e+00
9.058936e+00
6.237440e+00
9.131835e+00
6.310339e+00
8.906489e+00
6.488839e+00
8.965560e+00
6.547910e+00
8.849253e+00
6.639806e+00
8.897234e+00
6.687787e+00
8.846812e+00
6.728172e+00
8.886635e+00
6.767996e+00
8.867306e+00
6.783409e+00
8.900490e+00
6.816592e+00
8.897069e+00
6.819320e+00
8.924938e+00
6.847189e+00
8.929204e+00
6.843794e+00
8.952760e+00
6.867351e+00
8.960460e+00
6.861233e+00
8.980487e+00
6.881260e+00
8.989399e+00
6.874193e+00
9.006509e+00
6.891304e+00
9.015498e+00
6.884187e+00
9.030179e+00
6.898867e+00
9.038694e+00
6.892135e+00
9.051333e+00
6.904774e+00
9.059132e+00
6.898615e+00
9.070042e+00
6.909525e+00
9.077048e+00
6.903998e+00
9.086483e+00
6.913432e+00
9.092701e+00
6.908531e+00
9.100868e+00
6.916698e+00
9.106343e+00
6.912387e+00
9.113413e+00
6.919457e+00
9.118203e+00
6.915687e+00
9.124318e+00
6.921802e+00
9.128487e+00
6.918522e+00
9.133764e+00
6.923799e+00
9.137373e+00
6.920961e+00
9.141908e+00
6.925497e+00
9.145012e+00
6.923057e+00
9.148887e+00
6.926932e+00
9.151534e+00
6.924853e+00
9.154816e+00
6.928135e+00
9.157048e+00
6.926382e+00
9.159792e+00
6.929126e+00
9.161645e+00
6.927671e+00
9.163896e+00
6.929923e+00
9.165398e+00
6.928744e+00
9.167194e+00
6.930540e+00
9.168368e+00
6.929618e+00
9.169736e+00
6.930987e+00
9.170602e+00
6.930307e+00
9.171564e+00
6.931270e+00
9.172134e+00
6.930823e+00
9.172705e+00
6.931394e+00
9.172988e+00
6.931173e+00
9.173178e+00
6.931362e+00
</DataArray>
<DataArray type="Float32" Name="V2" format="ascii">
1.014952e+00
1.120000e+00
1.016293e+00
1.121607e+00
1.016293e+00
1.121607e+00
1.019784e+00
1.126399e+00
1.019784e+00
1.126399e+00
1.024115e+00
1.131838e+00
1.024115e+00
1.131838e+00
1.027486e+00
1.134954e+00
1.027486e+00
1.134954e+00
1.030406e+00
1.137684e+00
1.030406e+00
1.137684e+00
1.032839e+00
1.139981e+00
1.032839e+00
1.139981e+00
1.034911e+00
1.141945e+00
1.034911e+00
1.141945e+00
1.036689e+00
1.143636e+00
1.036689e+00
1.143636e+00
1.038230e+00
1.145102e+00
1.038230e+00
1.145102e+00
1.039573e+00
1.146381e+00
1.039573e+00
1.146381e+00
1.040752e+00
1.147506e+00
1.040752e+00
1.147506e+00
1.041792e+00
1.148499e+00
1.041792e+00
1.148499e+00
1.042714e+00
1.149380e+00
1.042714e+00
1.149380e+00
1.043534e+00
1.150165e+00
1.043534e+00
1.150165e+00
1.044265e+00
1.150866e+00
1.044265e+00
1.150866e+00
1.044918e+00
1.151492e+00
1.044918e+00
1.151492e+00
1.045501e+00
1.152052e+00
1.045501e+00
1.152052e+00
1.046022e+00
1.152553e+00
1.046022e+00
1.152553e+00
1.046486e+00
1.153000e+00
1.046486e+00
1.153000e+00
1.046897e+00
1.153396e+00
1.046897e+00
1.153396e+00
1.047261e+00
1.153746e+00
1.047261e+00
1.153746e+00
1.047579e+00
1.154054e+00
1.047579e+00
1.154054e+00
1.047854e+00
1.154320e+00
1.047854e+00
1.154320e+00
1.048089e+00
1.154547e+00
1.048089e+00
1.154547e+00
1.048286e+00
1.154737e+00
1.048286e+00
1.154737e+00
1.048445e+00
1.154890e+00
1.048445e+00
1.154890e+00
1.048567e+00
1.155009e+00
1.048567e+00
1.155009e+00
1.048654e+00
1.155093e+00
1.048654e+00
1.155093e+00
1.048706e+00
1.155144e+00
1.048706e+00
1.155144e+00
1.048723e+00
1.155160e+00
</DataArray>
<DataArray type="Float32" Name="V3" format="ascii">
0.000000e+00
0.000000e+00
2.423123e-03
1.331220e-03
2.423123e-03
1.331220e-03
4.082036e-03
2.189724e-03
4.082036e-03
2.189724e-03
5.375817e-03
1.911930e-03
5.375817e-03
1.911930e-03
5.862359e-03
1.987499e-03
5.862359e-03
1.987499e-03
5.995672e-03
2.319935e-03
5.995672e-03
2.319935e-03
6.002032e-03
2.696505e-03
6.002032e-03
2.696505e-03
5.938817e-03
3.042235e-03
5.938817e-03
3.042235e-03
5.835096e-03
3.327017e-03
5.835096e-03
3.327017e-03
5.704110e-03
3.543863e-03
5.704110e-03
3.543863e-03
5.552282e-03
3.694748e-03
5.552282e-03
3.694748e-03
5.382742e-03
3.785121e-03
5.382742e-03
3.785121e-03
5.197115e-03
3.821391e-03
5.197115e-03
3.821391e-03
4.996369e-03
3.809857e-03
4.996369e-03
3.809857e-03
4.781221e-03
3.756288e-03
4.781221e-03
3.756288e-03
4.552317e-03
3.665803e-03
4.552317e-03
3.665803e-03
4.310319e-03
3.542888e-03
4.310319e-03
3.542888e-03
4.055926e-03
3.391458e-03
4.055926e-03
3.391458e-03
3.789884e-03
3.214940e-03
3.789884e-03
3.214940e-03
3.512981e-03
3.016355e-03
3.512981e-03
3.016355e-03
3.226041e-03
2.798384e-03
3.226041e-03
2.798384e-03
2.929917e-03
2.563437e-03
2.929917e-03
2.563437e-03
2.625484e-03
2.313699e-03
2.625484e-03
2.313699e-03
2.313632e-03
2.051175e-03
2.313632e-03
2.051175e-03
1.995267e-03
1.777725e-03
1.995267e-03
1.777725e-03
1.671305e-03
1.495095e-03
1.671305e-03
1.495095e-03
1.342667e-03
1.204939e-03
1.342667e-03
1.204939e-03
1.010284e-03
9.088391e-04
1.010284e-03
9.088391e-04
6.750868e-04
6.083257e-04
6.750868e-04
6.083257e-04
3.380129e-04
3.048903e-04
3.380129e-04
3.048903e-04
0.000000e+00
0.000000e+00
</DataArray>
<DataArray type="Float32" Name="V4" format="ascii">
8.500000e-01
1.000000e+00
8.500000e-01
1.000000e+00
8.500000e-01
1.000000e+00
8.500000e-01
1.000000e+00
8.500000e-01
1.000000e+00
8.500000e-01
1.000000e+00
8.500000e-01
1.000000e+00
8.500000e-01
1.000000e+00
8.500000e-01
1.000000e+00
8.500000e-01
1.000000e+00
8.500000e-01
1.000000e+00
8.500000e-01
1.000000e+00
8.500000e-01
1.000000e+00
8.500000e-01
1.000000e+00
8.500000e-01
1.000000e+00
8.500000e-01
1.000000e+00
8.500000e-01
1.000000e+00
8.500000e-01
1.000000e+00
8.500000e-01
1.000000e+00
8.500000e-01
1.000000e+00
8.500000e-01
1.000000e+00
8.500000e-01
1.000000e+00
8.500000e-01
1.000000e+00
8.500000e-01
1.000000e+00
8.500000e-01
1.000000e+00
8.500000e-01
1.000000e+00
8.500000e-01
1.000000e+00
8.500000e-01
1.000000e+00
8.500000e-01
1.000000e+00
8.500000e-01
1.000000e+00
8.500000e-01
1.000000e+00
8.500000e-01
1.000000e+00
8.500000e-01
1.000000e+00
8.500000e-01
1.000000e+00
8.500000e-01
1.000000e+00
8.500000e-01
1.000000e+00
8.500000e-01
1.000000e+00
8.500000e-01
1.000000e+00
8.500000e-01
1.000000e+00
8.500000e-01
1.000000e+00
8.500000e-01
1.000000e+00
8.500000e-01
1.000000e+00
8.500000e-01
1.000000e+00
8.500000e-01
1.000000e+00
8.500000e-01
1.000000e+00
8.500000e-01
1.000000e+00
8.500000e-01
1.000000e+00
8.500000e-01
1.000000e+00
8.500000e-01
1.000000e+00
8.500000e-01
1.000000e+00
8.500000e-01
1.000000e+00
8.500000e-01
1.000000e+00
8.500000e-01
1.000000e+00
8.500000e-01
1.000000e+00
8.500000e-01
1.000000e+00
8.500000e-01
1.000000e+00
8.500000e-01
1.000000e+00
8.500000e-01
1.000000e+00
8.500000e-01
1.000000e+00
8.500000e-01
1.000000e+00
</DataArray>
<DataArray type="Float32" Name="V5" format="ascii">
0.000000e+00
0.000000e+00
5.235988e-02
5.235988e-02
5.235988e-02
5.235988e-02
1.047198e-01
1.047198e-01
1.047198e-01
1.047198e-01
1.570796e-01
1.570796e-01
1.570796e-01
1.570796e-01
2.094395e-01
2.094395e-01
2.094395e-01
2.094395e-01
2.617994e-01
2.617994e-01
2.617994e-01
2.617994e-01
3.141593e-01
3.141593e-01
3.141593e-01
3.141593e-01
3.665191e-01
3.665191e-01
3.665191e-01
3.665191e-01
4.188790e-01
4.188790e-01
4.188790e-01
4.188790e-01
4.712389e-01
4.712389e-01
4.712389e-01
4.712389e-01
5.235988e-01
5.235988e-01
5.235988e-01
5.235988e-01
5.759587e-01
5.759587e-01
5.759587e-01
5.759587e-01
6.283185e-01
6.283185e-01
6.283185e-01
6.283185e-01
6.806784e-01
6.806784e-01
6.806784e-01
6.806784e-01
7.330383e-01
7.330383e-01
7.330383e-01
7.330383e-01
7.853982e-01
7.853982e-01
7.853982e-01
7.853982e-01
8.377580e-01
8.377580e-01
8.377580e-01
8.377580e-01
8.901179e-01
8.901179e-01
8.901179e-01
8.901179e-01
9.424778e-01
9.424778e-01
9.424778e-01
9.424778e-01
9.948377e-01
9.948377e-01
9.948377e-01
9.948377e-01
1.047198e+00
1.047198e+00
1.047198e+00
1.047198e+00
1.099557e+00
1.099557e+00
1.099557e+00
1.099557e+00
1.151917e+00
1.151917e+00
1.151917e+00
1.151917e+00
1.204277e+00
1.204277e+00
1.204277e+00
1.204277e+00
1.256637e+00
1.256637e+00
1.256637e+00
1.256637e+00
1.308997e+00
1.308997e+00
1.308997e+00
1.308997e+00
1.361357e+00
1.361357e+00
1.361357e+00
1.361357e+00
1.413717e+00
1.413717e+00
1.413717e+00
1.413717e+00
1.466077e+00
1.466077e+00
1.466077e+00
1.466077e+00
1.518436e+00
1.518436e+00
1.518436e+00
1.518436e+00
1.570796e+00
1.570796e+00
</DataArray>
</PointData>
</Piece></UnstructuredGrid>
</VTKFile>
