<?xml version="1.0"?>
<VTKFile type="UnstructuredGrid" version="0.1" byte_order="LittleEndian" compressor="vtkZLibDataCompressor">
<UnstructuredGrid>
<Piece NumberOfPoints="120" NumberOfCells="30">
<Points>
<DataArray type="Float32" NumberOfComponents="3" format="ascii">
0.000000e+00 8.128507e-01 0.000000e+00
0.000000e+00 9.200000e-01 0.000000e+00
5.741802e-02 8.129163e-01 0.000000e+00
5.736001e-02 9.200000e-01 0.000000e+00
5.741802e-02 8.129163e-01 0.000000e+00
5.736001e-02 9.200000e-01 0.000000e+00
1.148241e-01 8.130914e-01 0.000000e+00
1.147491e-01 9.200000e-01 0.000000e+00
1.148241e-01 8.130914e-01 0.000000e+00
1.147491e-01 9.200000e-01 0.000000e+00
1.721947e-01 8.133941e-01 0.000000e+00
1.722135e-01 9.200000e-01 0.000000e+00
1.721947e-01 8.133941e-01 0.000000e+00
1.722135e-01 9.200000e-01 0.000000e+00
2.294841e-01 8.138384e-01 0.000000e+00
2.298328e-01 9.200000e-01 0.000000e+00
2.294841e-01 8.138384e-01 0.000000e+00
2.298328e-01 9.200000e-01 0.000000e+00
2.865963e-01 8.144336e-01 0.000000e+00
2.877433e-01 9.200000e-01 0.000000e+00
2.865963e-01 8.144336e-01 0.000000e+00
2.877433e-01 9.200000e-01 0.000000e+00
3.433392e-01 8.151496e-01 0.000000e+00
3.461509e-01 9.200000e-01 0.000000e+00
3.433392e-01 8.151496e-01 0.000000e+00
3.461509e-01 9.200000e-01 0.000000e+00
3.993524e-01 8.158073e-01 0.000000e+00
4.052837e-01 9.200000e-01 0.000000e+00
3.993524e-01 8.158073e-01 0.000000e+00
4.052837e-01 9.200000e-01 0.000000e+00
4.541047e-01 8.158254e-01 0.000000e+00
4.651175e-01 9.200000e-01 0.000000e+00
4.541047e-01 8.158254e-01 0.000000e+00
4.651175e-01 9.200000e-01 0.000000e+00
5.079595e-01 8.140627e-01 0.000000e+00
5.244797e-01 9.184970e-01 0.000000e+00
5.079595e-01 8.140627e-01 0.000000e+00
5.244797e-01 9.184970e-01 0.000000e+00
5.603391e-01 8.072632e-01 0.000000e+00
5.834010e-01 9.096521e-01 0.000000e+00
5.603391e-01 8.072632e-01 0.000000e+00
5.834010e-01 9.096521e-01 0.000000e+00
6.111479e-01 7.956805e-01 0.000000e+00
6.418542e-01 8.950798e-01 0.000000e+00
6.111479e-01 7.956805e-01 0.000000e+00
6.418542e-01 8.950798e-01 0.000000e+00
6.605118e-01 7.792185e-01 0.000000e+00
6.989836e-01 8.750178e-01 0.000000e+00
6.605118e-01 7.792185e-01 0.000000e+00
6.989836e-01 8.750178e-01 0.000000e+00
7.082922e-01 7.582478e-01 0.000000e+00
7.541893e-01 8.499336e-01 0.000000e+00
7.082922e-01 7.582478e-01 0.000000e+00
7.541893e-01 8.499336e-01 0.000000e+00
7.542931e-01 7.331111e-01 0.000000e+00
8.070684e-01 8.202953e-01 0.000000e+00
7.542931e-01 7.331111e-01 0.000000e+00
8.070684e-01 8.202953e-01 0.000000e+00
7.983183e-01 7.041559e-01 0.000000e+00
8.573629e-01 7.865571e-01 0.000000e+00
7.983183e-01 7.041559e-01 0.000000e+00
8.573629e-01 7.865571e-01 0.000000e+00
8.401868e-01 6.717152e-01 0.000000e+00
9.048977e-01 7.491313e-01 0.000000e+00
8.401868e-01 6.717152e-01 0.000000e+00
9.048977e-01 7.491313e-01 0.000000e+00
8.797386e-01 6.361038e-01 0.000000e+00
9.495470e-01 7.083876e-01 0.000000e+00
8.797386e-01 6.361038e-01 0.000000e+00
9.495470e-01 7.083876e-01 0.000000e+00
9.168339e-01 5.976167e-01 0.000000e+00
9.912139e-01 6.646576e-01 0.000000e+00
9.168339e-01 5.976167e-01 0.000000e+00
9.912139e-01 6.646576e-01 0.000000e+00
9.513513e-01 5.565305e-01 0.000000e+00
1.029819e+00 6.182415e-01 0.000000e+00
9.513513e-01 5.565305e-01 0.000000e+00
1.029819e+00 6.182415e-01 0.000000e+00
9.831852e-01 5.131051e-01 0.000000e+00
1.065294e+00 5.694149e-01 0.000000e+00
9.831852e-01 5.131051e-01 0.000000e+00
1.065294e+00 5.694149e-01 0.000000e+00
1.012244e+00 4.675863e-01 0.000000e+00
1.097578e+00 5.184342e-01 0.000000e+00
1.012244e+00 4.675863e-01 0.000000e+00
1.097578e+00 5.184342e-01 0.000000e+00
1.038446e+00 4.202082e-01 0.000000e+00
1.126617e+00 4.655413e-01 0.000000e+00
1.038446e+00 4.202082e-01 0.000000e+00
1.126617e+00 4.655413e-01 0.000000e+00
1.061724e+00 3.711955e-01 0.000000e+00
1.152360e+00 4.109671e-01 0.000000e+00
1.061724e+00 3.711955e-01 0.000000e+00
1.152360e+00 4.109671e-01 0.000000e+00
1.082016e+00 3.207656e-01 0.000000e+00
1.174764e+00 3.549345e-01 0.000000e+00
1.082016e+00 3.207656e-01 0.000000e+00
1.174764e+00 3.549345e-01 0.000000e+00
1.099271e+00 2.691298e-01 0.000000e+00
1.193789e+00 2.976602e-01 0.000000e+00
1.099271e+00 2.691298e-01 0.000000e+00
1.193789e+00 2.976602e-01 0.000000e+00
1.113447e+00 2.164949e-01 0.000000e+00
1.209402e+00 2.393565e-01 0.000000e+00
1.113447e+00 2.164949e-01 0.000000e+00
1.209402e+00 2.393565e-01 0.000000e+00
1.124509e+00 1.630643e-01 0.000000e+00
1.221575e+00 1.802325e-01 0.000000e+00
1.124509e+00 1.630643e-01 0.000000e+00
1.221575e+00 1.802325e-01 0.000000e+00
1.132429e+00 1.090391e-01 0.000000e+00
1.230285e+00 1.204951e-01 0.000000e+00
1.132429e+00 1.090391e-01 0.000000e+00
1.230285e+00 1.204951e-01 0.000000e+00
1.137189e+00 5.461830e-02 0.000000e+00
1.235518e+00 6.034949e-02 0.000000e+00
1.137189e+00 5.461830e-02 0.000000e+00
1.235518e+00 6.034949e-02 0.000000e+00
1.138776e+00 5.576120e-12 0.000000e+00
1.237263e+00 6.058370e-12 0.000000e+00
</DataArray>
</Points>
<Cells>
<DataArray type="Int32" Name="connectivity" format="ascii">
0 1 3 2
4 5 7 6
8 9 11 10
12 13 15 14
16 17 19 18
20 21 23 22
24 25 27 26
28 29 31 30
32 33 35 34
36 37 39 38
40 41 43 42
44 45 47 46
48 49 51 50
52 53 55 54
56 57 59 58
60 61 63 62
64 65 67 66
68 69 71 70
72 73 75 74
76 77 79 78
80 81 83 82
84 85 87 86
88 89 91 90
92 93 95 94
96 97 99 98
100 101 103 102
104 105 107 106
108 109 111 110
112 113 115 114
116 117 119 118
</DataArray>
<DataArray type="Int32" Name="offsets" format="ascii">
4
8
12
16
20
24
28
32
36
40
44
48
52
56
60
64
68
72
76
80
84
88
92
96
100
104
108
112
116
120
</DataArray>
<DataArray type="UInt8" Name="types" format="ascii">
9
9
9
9
9
9
9
9
9
9
9
9
9
9
9
9
9
9
9
9
9
9
9
9
9
9
9
9
9
9
</DataArray>
</Cells>
<PointData>
<DataArray type="Float32" Name="V1" format="ascii">
1.258516e+01
-3.367522e-01
1.260267e+01
-3.192397e-01
1.261445e+01
-3.284715e-01
1.265961e+01
-2.833113e-01
1.267697e+01
-2.964341e-01
1.275310e+01
-2.203014e-01
1.275399e+01
-2.238988e-01
1.286303e+01
-1.148627e-01
1.280238e+01
-7.835495e-02
1.295126e+01
7.052027e-02
1.273909e+01
2.107702e-01
1.294831e+01
4.199923e-01
1.241893e+01
7.890930e-01
1.274722e+01
1.117374e+00
1.161652e+01
1.956148e+00
1.223100e+01
2.570630e+00
1.020578e+01
4.429256e+00
1.112368e+01
5.347148e+00
9.653699e+00
6.452938e+00
1.006467e+01
6.863905e+00
9.500139e+00
7.286595e+00
9.827848e+00
7.614304e+00
9.597730e+00
7.807250e+00
9.910404e+00
8.119924e+00
9.865759e+00
8.160132e+00
1.015838e+01
8.452752e+00
1.020796e+01
8.412475e+00
1.047512e+01
8.679633e+00
1.057187e+01
8.599672e+00
1.081184e+01
8.839647e+00
1.092835e+01
8.743707e+00
1.114155e+01
8.956909e+00
1.126248e+01
8.858055e+00
1.145048e+01
9.046050e+00
1.156742e+01
8.951208e+00
1.173226e+01
9.116043e+00
1.184089e+01
9.028606e+00
1.198472e+01
9.172435e+00
1.208305e+01
9.093820e+00
1.220793e+01
9.218706e+00
1.229532e+01
9.149257e+00
1.240314e+01
9.257077e+00
1.247964e+01
9.196587e+00
1.257206e+01
9.289004e+00
1.263810e+01
9.237010e+00
1.271655e+01
9.315459e+00
1.277271e+01
9.271412e+00
1.283841e+01
9.337114e+00
1.288528e+01
9.300463e+00
1.293925e+01
9.354438e+00
1.297739e+01
9.324682e+00
1.302047e+01
9.367762e+00
1.305038e+01
9.344475e+00
1.308323e+01
9.377321e+00
1.310530e+01
9.360157e+00
1.312841e+01
9.383270e+00
1.314296e+01
9.371970e+00
1.315669e+01
9.385699e+00
1.316391e+01
9.380093e+00
1.316846e+01
9.384646e+00
</DataArray>
<DataArray type="Float32" Name="V2" format="ascii">
8.128507e-01
9.200000e-01
8.148072e-01
9.217412e-01
8.148072e-01
9.217412e-01
8.206395e-01
9.269547e-01
8.206395e-01
9.269547e-01
8.303170e-01
9.356134e-01
8.303170e-01
9.356134e-01
8.437665e-01
9.476807e-01
8.437665e-01
9.476807e-01
8.608591e-01
9.631252e-01
8.608591e-01
9.631252e-01
8.813510e-01
9.819385e-01
8.813510e-01
9.819385e-01
9.047368e-01
1.004135e+00
9.047368e-01
1.004135e+00
9.299946e-01
1.029642e+00
9.299946e-01
1.029642e+00
9.559440e-01
1.056496e+00
9.559440e-01
1.056496e+00
9.792799e-01
1.079482e+00
9.792799e-01
1.079482e+00
1.000169e+00
1.100256e+00
1.000169e+00
1.100256e+00
1.018640e+00
1.118757e+00
1.018640e+00
1.118757e+00
1.035012e+00
1.135149e+00
1.035012e+00
1.135149e+00
1.049528e+00
1.149632e+00
1.049528e+00
1.149632e+00
1.062410e+00
1.162427e+00
1.062410e+00
1.162427e+00
1.073846e+00
1.173737e+00
1.073846e+00
1.173737e+00
1.083998e+00
1.183739e+00
1.083998e+00
1.183739e+00
1.093005e+00
1.192585e+00
1.093005e+00
1.192585e+00
1.100979e+00
1.200397e+00
1.100979e+00
1.200397e+00
1.108016e+00
1.207279e+00
1.108016e+00
1.207279e+00
1.114195e+00
1.213314e+00
1.114195e+00
1.213314e+00
1.119582e+00
1.218568e+00
1.119582e+00
1.218568e+00
1.124229e+00
1.223098e+00
1.124229e+00
1.223098e+00
1.128180e+00
1.226947e+00
1.128180e+00
1.226947e+00
1.131471e+00
1.230152e+00
1.131471e+00
1.230152e+00
1.134128e+00
1.232738e+00
1.134128e+00
1.232738e+00
1.136173e+00
1.234730e+00
1.136173e+00
1.234730e+00
1.137623e+00
1.236141e+00
1.137623e+00
1.236141e+00
1.138489e+00
1.236983e+00
1.138489e+00
1.236983e+00
1.138776e+00
1.237263e+00
</DataArray>
<DataArray type="Float32" Name="V3" format="ascii">
0.000000e+00
0.000000e+00
1.479457e-02
9.132324e-03
1.479457e-02
9.132324e-03
2.920385e-02
1.795432e-02
2.920385e-02
1.795432e-02
4.283186e-02
2.617357e-02
4.283186e-02
2.617357e-02
5.526283e-02
3.353163e-02
5.526283e-02
3.353163e-02
6.603988e-02
3.982520e-02
6.603988e-02
3.982520e-02
7.463986e-02
4.491339e-02
7.463986e-02
4.491339e-02
8.046835e-02
4.866638e-02
8.046835e-02
4.866638e-02
8.301925e-02
5.070824e-02
8.301925e-02
5.070824e-02
8.301851e-02
5.032592e-02
8.301851e-02
5.032592e-02
8.163628e-02
5.041400e-02
8.163628e-02
5.041400e-02
7.919311e-02
5.080881e-02
7.919311e-02
5.080881e-02
7.635216e-02
5.116707e-02
7.635216e-02
5.116707e-02
7.326558e-02
5.123465e-02
7.326558e-02
5.123465e-02
7.000194e-02
5.088402e-02
7.000194e-02
5.088402e-02
6.658285e-02
5.006727e-02
6.658285e-02
5.006727e-02
6.301304e-02
4.878167e-02
6.301304e-02
4.878167e-02
5.929196e-02
4.704867e-02
5.929196e-02
4.704867e-02
5.541934e-02
4.490161e-02
5.541934e-02
4.490161e-02
5.139725e-02
4.237871e-02
5.139725e-02
4.237871e-02
4.723052e-02
3.951930e-02
4.723052e-02
3.951930e-02
4.292657e-02
3.636186e-02
4.292657e-02
3.636186e-02
3.849496e-02
3.294318e-02
3.849496e-02
3.294318e-02
3.394697e-02
2.929803e-02
3.394697e-02
2.929803e-02
2.929514e-02
2.545918e-02
2.929514e-02
2.545918e-02
2.455301e-02
2.145762e-02
2.455301e-02
2.145762e-02
1.973478e-02
1.732277e-02
1.973478e-02
1.732277e-02
1.485518e-02
1.308279e-02
1.485518e-02
1.308279e-02
9.929282e-03
8.764812e-03
9.929282e-03
8.764812e-03
4.972404e-03
4.395244e-03
4.972404e-03
4.395244e-03
0.000000e+00
0.000000e+00
</DataArray>
<DataArray type="Float32" Name="V4" format="ascii">
8.500000e-01
1.000000e+00
8.500000e-01
1.000000e+00
8.500000e-01
1.000000e+00
8.500000e-01
1.000000e+00
8.500000e-01
1.000000e+00
8.500000e-01
1.000000e+00
8.500000e-01
1.000000e+00
8.500000e-01
1.000000e+00
8.500000e-01
1.000000e+00
8.500000e-01
1.000000e+00
8.500000e-01
1.000000e+00
8.500000e-01
1.000000e+00
8.500000e-01
1.000000e+00
8.500000e-01
1.000000e+00
8.500000e-01
1.000000e+00
8.500000e-01
1.000000e+00
8.500000e-01
1.000000e+00
8.500000e-01
1.000000e+00
8.500000e-01
1.000000e+00
8.500000e-01
1.000000e+00
8.500000e-01
1.000000e+00
8.500000e-01
1.000000e+00
8.500000e-01
1.000000e+00
8.500000e-01
1.000000e+00
8.500000e-01
1.000000e+00
8.500000e-01
1.000000e+00
8.500000e-01
1.000000e+00
8.500000e-01
1.000000e+00
8.500000e-01
1.000000e+00
8.500000e-01
1.000000e+00
8.500000e-01
1.000000e+00
8.500000e-01
1.000000e+00
8.500000e-01
1.000000e+00
8.500000e-01
1.000000e+00
8.500000e-01
1.000000e+00
8.500000e-01
1.000000e+00
8.500000e-01
1.000000e+00
8.500000e-01
1.000000e+00
8.500000e-01
1.000000e+00
8.500000e-01
1.000000e+00
8.500000e-01
1.000000e+00
8.500000e-01
1.000000e+00
8.500000e-01
1.000000e+00
8.500000e-01
1.000000e+00
8.500000e-01
1.000000e+00
8.500000e-01
1.000000e+00
8.500000e-01
1.000000e+00
8.500000e-01
1.000000e+00
8.500000e-01
1.000000e+00
8.500000e-01
1.000000e+00
8.500000e-01
1.000000e+00
8.500000e-01
1.000000e+00
8.500000e-01
1.000000e+00
8.500000e-01
1.000000e+00
8.500000e-01
1.000000e+00
8.500000e-01
1.000000e+00
8.500000e-01
1.000000e+00
8.500000e-01
1.000000e+00
8.500000e-01
1.000000e+00
8.500000e-01
1.000000e+00
</DataArray>
<DataArray type="Float32" Name="V5" format="ascii">
0.000000e+00
0.000000e+00
5.235988e-02
5.235988e-02
5.235988e-02
5.235988e-02
1.047198e-01
1.047198e-01
1.047198e-01
1.047198e-01
1.570796e-01
1.570796e-01
1.570796e-01
1.570796e-01
2.094395e-01
2.094395e-01
2.094395e-01
2.094395e-01
2.617994e-01
2.617994e-01
2.617994e-01
2.617994e-01
3.141593e-01
3.141593e-01
3.141593e-01
3.141593e-01
3.665191e-01
3.665191e-01
3.665191e-01
3.665191e-01
4.188790e-01
4.188790e-01
4.188790e-01
4.188790e-01
4.712389e-01
4.712389e-01
4.712389e-01
4.712389e-01
5.235988e-01
5.235988e-01
5.235988e-01
5.235988e-01
5.759587e-01
5.759587e-01
5.759587e-01
5.759587e-01
6.283185e-01
6.283185e-01
6.283185e-01
6.283185e-01
6.806784e-01
6.806784e-01
6.806784e-01
6.806784e-01
7.330383e-01
7.330383e-01
7.330383e-01
7.330383e-01
7.853982e-01
7.853982e-01
7.853982e-01
7.853982e-01
8.377580e-01
8.377580e-01
8.377580e-01
8.377580e-01
8.901179e-01
8.901179e-01
8.901179e-01
8.901179e-01
9.424778e-01
9.424778e-01
9.424778e-01
9.424778e-01
9.948377e-01
9.948377e-01
9.948377e-01
9.948377e-01
1.047198e+00
1.047198e+00
1.047198e+00
1.047198e+00
1.099557e+00
1.099557e+00
1.099557e+00
1.099557e+00
1.151917e+00
1.151917e+00
1.151917e+00
1.151917e+00
1.204277e+00
1.204277e+00
1.204277e+00
1.204277e+00
1.256637e+00
1.256637e+00
1.256637e+00
1.256637e+00
1.308997e+00
1.308997e+00
1.308997e+00
1.308997e+00
1.361357e+00
1.361357e+00
1.361357e+00
1.361357e+00
1.413717e+00
1.413717e+00
1.413717e+00
1.413717e+00
1.466077e+00
1.466077e+00
1.466077e+00
1.466077e+00
1.518436e+00
1.518436e+00
1.518436e+00
1.518436e+00
1.570796e+00
1.570796e+00
</DataArray>
</PointData>
</Piece></UnstructuredGrid>
</VTKFile>
