<?xml version="1.0"?>
<VTKFile type="UnstructuredGrid" version="0.1" byte_order="LittleEndian" compressor="vtkZLibDataCompressor">
<UnstructuredGrid>
<Piece NumberOfPoints="120" NumberOfCells="30">
<Points>
<DataArray type="Float32" NumberOfComponents="3" format="ascii">
0.000000e+00 6.523261e-01 0.000000e+00
0.000000e+00 7.500000e-01 0.000000e+00
6.014774e-02 6.523782e-01 0.000000e+00
6.005019e-02 7.500000e-01 0.000000e+00
6.014774e-02 6.523782e-01 0.000000e+00
6.005019e-02 7.500000e-01 0.000000e+00
1.202937e-01 6.525052e-01 0.000000e+00
1.200985e-01 7.500000e-01 0.000000e+00
1.202937e-01 6.525052e-01 0.000000e+00
1.200985e-01 7.500000e-01 0.000000e+00
1.804331e-01 6.527170e-01 0.000000e+00
1.801447e-01 7.500000e-01 0.000000e+00
1.804331e-01 6.527170e-01 0.000000e+00
1.801447e-01 7.500000e-01 0.000000e+00
2.405622e-01 6.530136e-01 0.000000e+00
2.401889e-01 7.500000e-01 0.000000e+00
2.405622e-01 6.530136e-01 0.000000e+00
2.401889e-01 7.500000e-01 0.000000e+00
3.006749e-01 6.533955e-01 0.000000e+00
3.002344e-01 7.500000e-01 0.000000e+00
3.006749e-01 6.533955e-01 0.000000e+00
3.002344e-01 7.500000e-01 0.000000e+00
3.607617e-01 6.538645e-01 0.000000e+00
3.602910e-01 7.500000e-01 0.000000e+00
3.607617e-01 6.538645e-01 0.000000e+00
3.602910e-01 7.500000e-01 0.000000e+00
4.208060e-01 6.544249e-01 0.000000e+00
4.203811e-01 7.500000e-01 0.000000e+00
4.208060e-01 6.544249e-01 0.000000e+00
4.203811e-01 7.500000e-01 0.000000e+00
4.807768e-01 6.550844e-01 0.000000e+00
4.805522e-01 7.500000e-01 0.000000e+00
4.807768e-01 6.550844e-01 0.000000e+00
4.805522e-01 7.500000e-01 0.000000e+00
5.406143e-01 6.558537e-01 0.000000e+00
5.408963e-01 7.500000e-01 0.000000e+00
5.406143e-01 6.558537e-01 0.000000e+00
5.408963e-01 7.500000e-01 0.000000e+00
6.002016e-01 6.567403e-01 0.000000e+00
6.015780e-01 7.500000e-01 0.000000e+00
6.002016e-01 6.567403e-01 0.000000e+00
6.015780e-01 7.500000e-01 0.000000e+00
6.593083e-01 6.577175e-01 0.000000e+00
6.628548e-01 7.500000e-01 0.000000e+00
6.593083e-01 6.577175e-01 0.000000e+00
6.628548e-01 7.500000e-01 0.000000e+00
7.174895e-01 6.585983e-01 0.000000e+00
7.250258e-01 7.500000e-01 0.000000e+00
7.174895e-01 6.585983e-01 0.000000e+00
7.250258e-01 7.500000e-01 0.000000e+00
7.741272e-01 6.588431e-01 0.000000e+00
7.879114e-01 7.500000e-01 0.000000e+00
7.741272e-01 6.588431e-01 0.000000e+00
7.879114e-01 7.500000e-01 0.000000e+00
8.297577e-01 6.561837e-01 0.000000e+00
8.493060e-01 7.466046e-01 0.000000e+00
8.297577e-01 6.561837e-01 0.000000e+00
8.493060e-01 7.466046e-01 0.000000e+00
8.830355e-01 6.459442e-01 0.000000e+00
9.099580e-01 7.330946e-01 0.000000e+00
8.830355e-01 6.459442e-01 0.000000e+00
9.099580e-01 7.330946e-01 0.000000e+00
9.340859e-01 6.293220e-01 0.000000e+00
9.692240e-01 7.123155e-01 0.000000e+00
9.340859e-01 6.293220e-01 0.000000e+00
9.692240e-01 7.123155e-01 0.000000e+00
9.826819e-01 6.065386e-01 0.000000e+00
1.025788e+00 6.846271e-01 0.000000e+00
9.826819e-01 6.065386e-01 0.000000e+00
1.025788e+00 6.846271e-01 0.000000e+00
1.028540e+00 5.782942e-01 0.000000e+00
1.078925e+00 6.509044e-01 0.000000e+00
1.028540e+00 5.782942e-01 0.000000e+00
1.078925e+00 6.509044e-01 0.000000e+00
1.071384e+00 5.451919e-01 0.000000e+00
1.128195e+00 6.119570e-01 0.000000e+00
1.071384e+00 5.451919e-01 0.000000e+00
1.128195e+00 6.119570e-01 0.000000e+00
1.110987e+00 5.078183e-01 0.000000e+00
1.173363e+00 5.685306e-01 0.000000e+00
1.110987e+00 5.078183e-01 0.000000e+00
1.173363e+00 5.685306e-01 0.000000e+00
1.147170e+00 4.667160e-01 0.000000e+00
1.214303e+00 5.212785e-01 0.000000e+00
1.147170e+00 4.667160e-01 0.000000e+00
1.214303e+00 5.212785e-01 0.000000e+00
1.179796e+00 4.223845e-01 0.000000e+00
1.250956e+00 4.707698e-01 0.000000e+00
1.179796e+00 4.223845e-01 0.000000e+00
1.250956e+00 4.707698e-01 0.000000e+00
1.208762e+00 3.752817e-01 0.000000e+00
1.283299e+00 4.175023e-01 0.000000e+00
1.208762e+00 3.752817e-01 0.000000e+00
1.283299e+00 4.175023e-01 0.000000e+00
1.233987e+00 3.258281e-01 0.000000e+00
1.311321e+00 3.619164e-01 0.000000e+00
1.233987e+00 3.258281e-01 0.000000e+00
1.311321e+00 3.619164e-01 0.000000e+00
1.255413e+00 2.744128e-01 0.000000e+00
1.335025e+00 3.044087e-01 0.000000e+00
1.255413e+00 2.744128e-01 0.000000e+00
1.335025e+00 3.044087e-01 0.000000e+00
1.272996e+00 2.213989e-01 0.000000e+00
1.354412e+00 2.453419e-01 0.000000e+00
1.272996e+00 2.213989e-01 0.000000e+00
1.354412e+00 2.453419e-01 0.000000e+00
1.286703e+00 1.671289e-01 0.000000e+00
1.369487e+00 1.850539e-01 0.000000e+00
1.286703e+00 1.671289e-01 0.000000e+00
1.369487e+00 1.850539e-01 0.000000e+00
1.296509e+00 1.119298e-01 0.000000e+00
1.380253e+00 1.238641e-01 0.000000e+00
1.296509e+00 1.119298e-01 0.000000e+00
1.380253e+00 1.238641e-01 0.000000e+00
1.302399e+00 5.611737e-02 0.000000e+00
1.386711e+00 6.207975e-02 0.000000e+00
1.302399e+00 5.611737e-02 0.000000e+00
1.386711e+00 6.207975e-02 0.000000e+00
1.304363e+00 6.386930e-12 0.000000e+00
1.388864e+00 6.800700e-12 0.000000e+00
</DataArray>
</Points>
<Cells>
<DataArray type="Int32" Name="connectivity" format="ascii">
0 1 3 2
4 5 7 6
8 9 11 10
12 13 15 14
16 17 19 18
20 21 23 22
24 25 27 26
28 29 31 30
32 33 35 34
36 37 39 38
40 41 43 42
44 45 47 46
48 49 51 50
52 53 55 54
56 57 59 58
60 61 63 62
64 65 67 66
68 69 71 70
72 73 75 74
76 77 79 78
80 81 83 82
84 85 87 86
88 89 91 90
92 93 95 94
96 97 99 98
100 101 103 102
104 105 107 106
108 109 111 110
112 113 115 114
116 117 119 118
</DataArray>
<DataArray type="Int32" Name="offsets" format="ascii">
4
8
12
16
20
24
28
32
36
40
44
48
52
56
60
64
68
72
76
80
84
88
92
96
100
104
108
112
116
120
</DataArray>
<DataArray type="UInt8" Name="types" format="ascii">
9
9
9
9
9
9
9
9
9
9
9
9
9
9
9
9
9
9
9
9
9
9
9
9
9
9
9
9
9
9
</DataArray>
</Cells>
<PointData>
<DataArray type="Float32" Name="V1" format="ascii">
1.725708e+01
-6.639836e-01
1.728072e+01
-6.403356e-01
1.731419e+01
-6.629846e-01
1.737760e+01
-5.995671e-01
1.744638e+01
-6.455036e-01
1.755374e+01
-5.381470e-01
1.765645e+01
-6.077981e-01
1.780881e+01
-4.554434e-01
1.794515e+01
-5.486058e-01
1.814410e+01
-3.496502e-01
1.831195e+01
-4.650751e-01
1.855984e+01
-2.171901e-01
1.875275e+01
-3.510425e-01
1.905297e+01
-5.082105e-02
1.925481e+01
-1.933360e-01
1.961274e+01
1.645885e-01
1.978699e+01
3.605551e-02
2.021198e+01
4.610430e-01
2.028130e+01
3.963365e-01
2.079112e+01
9.061531e-01
2.060094e+01
1.011864e+00
2.123141e+01
1.642334e+00
2.049174e+01
2.137690e+00
2.133252e+01
2.978467e+00
1.950003e+01
4.373712e+00
2.080047e+01
5.674142e+00
1.757345e+01
8.860975e+00
1.924548e+01
1.053300e+01
1.743736e+01
1.154552e+01
1.828669e+01
1.239484e+01
1.778680e+01
1.280709e+01
1.863468e+01
1.365498e+01
1.858310e+01
1.370549e+01
1.940702e+01
1.452941e+01
1.961842e+01
1.435961e+01
2.039679e+01
1.513798e+01
2.073227e+01
1.486197e+01
2.144789e+01
1.557760e+01
2.183461e+01
1.526042e+01
2.247937e+01
1.590519e+01
2.287327e+01
1.558500e+01
2.344466e+01
1.615639e+01
2.382051e+01
1.585412e+01
2.431947e+01
1.635309e+01
2.466309e+01
1.607963e+01
2.509235e+01
1.650890e+01
2.539628e+01
1.626931e+01
2.575930e+01
1.663232e+01
2.602007e+01
1.642843e+01
2.632039e+01
1.672875e+01
2.653680e+01
1.656068e+01
2.677771e+01
1.680159e+01
2.694975e+01
1.666870e+01
2.713409e+01
1.685304e+01
2.726228e+01
1.675443e+01
2.739231e+01
1.688445e+01
2.747731e+01
1.681926e+01
2.755466e+01
1.689661e+01
2.759701e+01
1.686418e+01
2.762269e+01
1.688986e+01
</DataArray>
<DataArray type="Float32" Name="V2" format="ascii">
6.523261e-01
7.500000e-01
6.546321e-01
7.521149e-01
6.546321e-01
7.521149e-01
6.615048e-01
7.584451e-01
6.615048e-01
7.584451e-01
6.729069e-01
7.689471e-01
6.729069e-01
7.689471e-01
6.887594e-01
7.835488e-01
6.887594e-01
7.835488e-01
7.089519e-01
8.021508e-01
7.089519e-01
8.021508e-01
7.333436e-01
8.246284e-01
7.333436e-01
8.246284e-01
7.617617e-01
8.508364e-01
7.617617e-01
8.508364e-01
7.939989e-01
8.806173e-01
7.939989e-01
8.806173e-01
8.298037e-01
9.138167e-01
8.298037e-01
9.138167e-01
8.688546e-01
9.503080e-01
8.688546e-01
9.503080e-01
9.106934e-01
9.900195e-01
9.106934e-01
9.900195e-01
9.545470e-01
1.032922e+00
9.545470e-01
1.032922e+00
9.991912e-01
1.078708e+00
9.991912e-01
1.078708e+00
1.042856e+00
1.123132e+00
1.042856e+00
1.123132e+00
1.081152e+00
1.161814e+00
1.081152e+00
1.161814e+00
1.115260e+00
1.196906e+00
1.115260e+00
1.196906e+00
1.145394e+00
1.228036e+00
1.145394e+00
1.228036e+00
1.172019e+00
1.255461e+00
1.172019e+00
1.255461e+00
1.195471e+00
1.279480e+00
1.195471e+00
1.279480e+00
1.216052e+00
1.300427e+00
1.216052e+00
1.300427e+00
1.234021e+00
1.318607e+00
1.234021e+00
1.318607e+00
1.249597e+00
1.334285e+00
1.249597e+00
1.334285e+00
1.262965e+00
1.347682e+00
1.262965e+00
1.347682e+00
1.274278e+00
1.358979e+00
1.274278e+00
1.358979e+00
1.283659e+00
1.368322e+00
1.283659e+00
1.368322e+00
1.291210e+00
1.375825e+00
1.291210e+00
1.375825e+00
1.297006e+00
1.381575e+00
1.297006e+00
1.381575e+00
1.301106e+00
1.385639e+00
1.301106e+00
1.385639e+00
1.303551e+00
1.388060e+00
1.303551e+00
1.388060e+00
1.304363e+00
1.388864e+00
</DataArray>
<DataArray type="Float32" Name="V3" format="ascii">
0.000000e+00
0.000000e+00
2.592247e-02
2.071592e-02
2.592247e-02
2.071592e-02
5.142931e-02
4.104425e-02
5.142931e-02
4.104425e-02
7.610425e-02
6.060099e-02
7.610425e-02
6.060099e-02
9.953616e-02
7.900644e-02
9.953616e-02
7.900644e-02
1.213184e-01
9.588991e-02
1.213184e-01
9.588991e-02
1.410495e-01
1.108943e-01
1.410495e-01
1.108943e-01
1.583313e-01
1.236836e-01
1.583313e-01
1.236836e-01
1.727646e-01
1.339538e-01
1.727646e-01
1.339538e-01
1.839395e-01
1.414493e-01
1.839395e-01
1.414493e-01
1.914197e-01
1.459818e-01
1.914197e-01
1.459818e-01
1.947239e-01
1.474375e-01
1.947239e-01
1.474375e-01
1.933468e-01
1.457193e-01
1.933468e-01
1.457193e-01
1.869864e-01
1.403319e-01
1.869864e-01
1.403319e-01
1.775575e-01
1.315814e-01
1.775575e-01
1.315814e-01
1.676489e-01
1.250613e-01
1.676489e-01
1.250613e-01
1.573481e-01
1.191839e-01
1.573481e-01
1.191839e-01
1.470527e-01
1.134939e-01
1.470527e-01
1.134939e-01
1.367109e-01
1.075835e-01
1.367109e-01
1.075835e-01
1.262809e-01
1.012289e-01
1.262809e-01
1.012289e-01
1.157098e-01
9.431936e-02
1.157098e-01
9.431936e-02
1.049573e-01
8.681934e-02
1.049573e-01
8.681934e-02
9.399896e-02
7.874016e-02
9.399896e-02
7.874016e-02
8.282573e-02
7.012113e-02
8.282573e-02
7.012113e-02
7.144194e-02
6.101761e-02
7.144194e-02
6.101761e-02
5.986242e-02
5.149363e-02
5.986242e-02
5.149363e-02
4.811001e-02
4.161752e-02
4.811001e-02
4.161752e-02
3.621339e-02
3.145946e-02
3.621339e-02
3.145946e-02
2.420544e-02
2.109014e-02
2.420544e-02
2.109014e-02
1.212184e-02
1.058019e-02
1.212184e-02
1.058019e-02
0.000000e+00
0.000000e+00
</DataArray>
<DataArray type="Float32" Name="V4" format="ascii">
8.500000e-01
1.000000e+00
8.500000e-01
1.000000e+00
8.500000e-01
1.000000e+00
8.500000e-01
1.000000e+00
8.500000e-01
1.000000e+00
8.500000e-01
1.000000e+00
8.500000e-01
1.000000e+00
8.500000e-01
1.000000e+00
8.500000e-01
1.000000e+00
8.500000e-01
1.000000e+00
8.500000e-01
1.000000e+00
8.500000e-01
1.000000e+00
8.500000e-01
1.000000e+00
8.500000e-01
1.000000e+00
8.500000e-01
1.000000e+00
8.500000e-01
1.000000e+00
8.500000e-01
1.000000e+00
8.500000e-01
1.000000e+00
8.500000e-01
1.000000e+00
8.500000e-01
1.000000e+00
8.500000e-01
1.000000e+00
8.500000e-01
1.000000e+00
8.500000e-01
1.000000e+00
8.500000e-01
1.000000e+00
8.500000e-01
1.000000e+00
8.500000e-01
1.000000e+00
8.500000e-01
1.000000e+00
8.500000e-01
1.000000e+00
8.500000e-01
1.000000e+00
8.500000e-01
1.000000e+00
8.500000e-01
1.000000e+00
8.500000e-01
1.000000e+00
8.500000e-01
1.000000e+00
8.500000e-01
1.000000e+00
8.500000e-01
1.000000e+00
8.500000e-01
1.000000e+00
8.500000e-01
1.000000e+00
8.500000e-01
1.000000e+00
8.500000e-01
1.000000e+00
8.500000e-01
1.000000e+00
8.500000e-01
1.000000e+00
8.500000e-01
1.000000e+00
8.500000e-01
1.000000e+00
8.500000e-01
1.000000e+00
8.500000e-01
1.000000e+00
8.500000e-01
1.000000e+00
8.500000e-01
1.000000e+00
8.500000e-01
1.000000e+00
8.500000e-01
1.000000e+00
8.500000e-01
1.000000e+00
8.500000e-01
1.000000e+00
8.500000e-01
1.000000e+00
8.500000e-01
1.000000e+00
8.500000e-01
1.000000e+00
8.500000e-01
1.000000e+00
8.500000e-01
1.000000e+00
8.500000e-01
1.000000e+00
8.500000e-01
1.000000e+00
8.500000e-01
1.000000e+00
8.500000e-01
1.000000e+00
</DataArray>
<DataArray type="Float32" Name="V5" format="ascii">
0.000000e+00
0.000000e+00
5.235988e-02
5.235988e-02
5.235988e-02
5.235988e-02
1.047198e-01
1.047198e-01
1.047198e-01
1.047198e-01
1.570796e-01
1.570796e-01
1.570796e-01
1.570796e-01
2.094395e-01
2.094395e-01
2.094395e-01
2.094395e-01
2.617994e-01
2.617994e-01
2.617994e-01
2.617994e-01
3.141593e-01
3.141593e-01
3.141593e-01
3.141593e-01
3.665191e-01
3.665191e-01
3.665191e-01
3.665191e-01
4.188790e-01
4.188790e-01
4.188790e-01
4.188790e-01
4.712389e-01
4.712389e-01
4.712389e-01
4.712389e-01
5.235988e-01
5.235988e-01
5.235988e-01
5.235988e-01
5.759587e-01
5.759587e-01
5.759587e-01
5.759587e-01
6.283185e-01
6.283185e-01
6.283185e-01
6.283185e-01
6.806784e-01
6.806784e-01
6.806784e-01
6.806784e-01
7.330383e-01
7.330383e-01
7.330383e-01
7.330383e-01
7.853982e-01
7.853982e-01
7.853982e-01
7.853982e-01
8.377580e-01
8.377580e-01
8.377580e-01
8.377580e-01
8.901179e-01
8.901179e-01
8.901179e-01
8.901179e-01
9.424778e-01
9.424778e-01
9.424778e-01
9.424778e-01
9.948377e-01
9.948377e-01
9.948377e-01
9.948377e-01
1.047198e+00
1.047198e+00
1.047198e+00
1.047198e+00
1.099557e+00
1.099557e+00
1.099557e+00
1.099557e+00
1.151917e+00
1.151917e+00
1.151917e+00
1.151917e+00
1.204277e+00
1.204277e+00
1.204277e+00
1.204277e+00
1.256637e+00
1.256637e+00
1.256637e+00
1.256637e+00
1.308997e+00
1.308997e+00
1.308997e+00
1.308997e+00
1.361357e+00
1.361357e+00
1.361357e+00
1.361357e+00
1.413717e+00
1.413717e+00
1.413717e+00
1.413717e+00
1.466077e+00
1.466077e+00
1.466077e+00
1.466077e+00
1.518436e+00
1.518436e+00
1.518436e+00
1.518436e+00
1.570796e+00
1.570796e+00
</DataArray>
</PointData>
</Piece></UnstructuredGrid>
</VTKFile>
