<?xml version="1.0"?>
<VTKFile type="UnstructuredGrid" version="0.1" byte_order="LittleEndian" compressor="vtkZLibDataCompressor">
<UnstructuredGrid>
<Piece NumberOfPoints="120" NumberOfCells="30">
<Points>
<DataArray type="Float32" NumberOfComponents="3" format="ascii">
0.000000e+00 4.973485e-01 0.000000e+00
0.000000e+00 5.700000e-01 0.000000e+00
6.970334e-02 4.973906e-01 0.000000e+00
6.965238e-02 5.700000e-01 0.000000e+00
6.970334e-02 4.973906e-01 0.000000e+00
6.965238e-02 5.700000e-01 0.000000e+00
1.393992e-01 4.974720e-01 0.000000e+00
1.392963e-01 5.700000e-01 0.000000e+00
1.393992e-01 4.974720e-01 0.000000e+00
1.392963e-01 5.700000e-01 0.000000e+00
2.090768e-01 4.976075e-01 0.000000e+00
2.089231e-01 5.700000e-01 0.000000e+00
2.090768e-01 4.976075e-01 0.000000e+00
2.089231e-01 5.700000e-01 0.000000e+00
2.787270e-01 4.977966e-01 0.000000e+00
2.785239e-01 5.700000e-01 0.000000e+00
2.787270e-01 4.977966e-01 0.000000e+00
2.785239e-01 5.700000e-01 0.000000e+00
3.483401e-01 4.980386e-01 0.000000e+00
3.480896e-01 5.700000e-01 0.000000e+00
3.483401e-01 4.980386e-01 0.000000e+00
3.480896e-01 5.700000e-01 0.000000e+00
4.179055e-01 4.983327e-01 0.000000e+00
4.176109e-01 5.700000e-01 0.000000e+00
4.179055e-01 4.983327e-01 0.000000e+00
4.176109e-01 5.700000e-01 0.000000e+00
4.874120e-01 4.986777e-01 0.000000e+00
4.870786e-01 5.700000e-01 0.000000e+00
4.874120e-01 4.986777e-01 0.000000e+00
4.870786e-01 5.700000e-01 0.000000e+00
5.568469e-01 4.990725e-01 0.000000e+00
5.564834e-01 5.700000e-01 0.000000e+00
5.568469e-01 4.990725e-01 0.000000e+00
5.564834e-01 5.700000e-01 0.000000e+00
6.261956e-01 4.995158e-01 0.000000e+00
6.258171e-01 5.700000e-01 0.000000e+00
6.261956e-01 4.995158e-01 0.000000e+00
6.258171e-01 5.700000e-01 0.000000e+00
6.954411e-01 5.000064e-01 0.000000e+00
6.950734e-01 5.700000e-01 0.000000e+00
6.954411e-01 5.000064e-01 0.000000e+00
6.950734e-01 5.700000e-01 0.000000e+00
7.645619e-01 5.005429e-01 0.000000e+00
7.642509e-01 5.700000e-01 0.000000e+00
7.645619e-01 5.005429e-01 0.000000e+00
7.642509e-01 5.700000e-01 0.000000e+00
8.335297e-01 5.011241e-01 0.000000e+00
8.333571e-01 5.700000e-01 0.000000e+00
8.335297e-01 5.011241e-01 0.000000e+00
8.333571e-01 5.700000e-01 0.000000e+00
9.023041e-01 5.017490e-01 0.000000e+00
9.024173e-01 5.700000e-01 0.000000e+00
9.023041e-01 5.017490e-01 0.000000e+00
9.024173e-01 5.700000e-01 0.000000e+00
9.708234e-01 5.024163e-01 0.000000e+00
9.714897e-01 5.700000e-01 0.000000e+00
9.708234e-01 5.024163e-01 0.000000e+00
9.714897e-01 5.700000e-01 0.000000e+00
1.038986e+00 5.031240e-01 0.000000e+00
1.040691e+00 5.700000e-01 0.000000e+00
1.038986e+00 5.031240e-01 0.000000e+00
1.040691e+00 5.700000e-01 0.000000e+00
1.106613e+00 5.038674e-01 0.000000e+00
1.110240e+00 5.700000e-01 0.000000e+00
1.106613e+00 5.038674e-01 0.000000e+00
1.110240e+00 5.700000e-01 0.000000e+00
1.173357e+00 5.046266e-01 0.000000e+00
1.180493e+00 5.700000e-01 0.000000e+00
1.173357e+00 5.046266e-01 0.000000e+00
1.180493e+00 5.700000e-01 0.000000e+00
1.238567e+00 5.052772e-01 0.000000e+00
1.251711e+00 5.700000e-01 0.000000e+00
1.238567e+00 5.052772e-01 0.000000e+00
1.251711e+00 5.700000e-01 0.000000e+00
1.302288e+00 5.037359e-01 0.000000e+00
1.320520e+00 5.670936e-01 0.000000e+00
1.302288e+00 5.037359e-01 0.000000e+00
1.320520e+00 5.670936e-01 0.000000e+00
1.363095e+00 4.899590e-01 0.000000e+00
1.387330e+00 5.499909e-01 0.000000e+00
1.363095e+00 4.899590e-01 0.000000e+00
1.387330e+00 5.499909e-01 0.000000e+00
1.419695e+00 4.659671e-01 0.000000e+00
1.450874e+00 5.216837e-01 0.000000e+00
1.419695e+00 4.659671e-01 0.000000e+00
1.450874e+00 5.216837e-01 0.000000e+00
1.471367e+00 4.332062e-01 0.000000e+00
1.509227e+00 4.836950e-01 0.000000e+00
1.471367e+00 4.332062e-01 0.000000e+00
1.509227e+00 4.836950e-01 0.000000e+00
1.517595e+00 3.931357e-01 0.000000e+00
1.561330e+00 4.377513e-01 0.000000e+00
1.517595e+00 3.931357e-01 0.000000e+00
1.561330e+00 4.377513e-01 0.000000e+00
1.558023e+00 3.470412e-01 0.000000e+00
1.606653e+00 3.854117e-01 0.000000e+00
1.558023e+00 3.470412e-01 0.000000e+00
1.606653e+00 3.854117e-01 0.000000e+00
1.592424e+00 2.960644e-01 0.000000e+00
1.644977e+00 3.280200e-01 0.000000e+00
1.592424e+00 2.960644e-01 0.000000e+00
1.644977e+00 3.280200e-01 0.000000e+00
1.620664e+00 2.412168e-01 0.000000e+00
1.676250e+00 2.667139e-01 0.000000e+00
1.620664e+00 2.412168e-01 0.000000e+00
1.676250e+00 2.667139e-01 0.000000e+00
1.642669e+00 1.834004e-01 0.000000e+00
1.700495e+00 2.024610e-01 0.000000e+00
1.642669e+00 1.834004e-01 0.000000e+00
1.700495e+00 2.024610e-01 0.000000e+00
1.658401e+00 1.234310e-01 0.000000e+00
1.717761e+00 1.361010e-01 0.000000e+00
1.658401e+00 1.234310e-01 0.000000e+00
1.717761e+00 1.361010e-01 0.000000e+00
1.667845e+00 6.206063e-02 0.000000e+00
1.728098e+00 6.838312e-02 0.000000e+00
1.667845e+00 6.206063e-02 0.000000e+00
1.728098e+00 6.838312e-02 0.000000e+00
1.670993e+00 8.182170e-12 0.000000e+00
1.731540e+00 8.478640e-12 0.000000e+00
</DataArray>
</Points>
<Cells>
<DataArray type="Int32" Name="connectivity" format="ascii">
0 1 3 2
4 5 7 6
8 9 11 10
12 13 15 14
16 17 19 18
20 21 23 22
24 25 27 26
28 29 31 30
32 33 35 34
36 37 39 38
40 41 43 42
44 45 47 46
48 49 51 50
52 53 55 54
56 57 59 58
60 61 63 62
64 65 67 66
68 69 71 70
72 73 75 74
76 77 79 78
80 81 83 82
84 85 87 86
88 89 91 90
92 93 95 94
96 97 99 98
100 101 103 102
104 105 107 106
108 109 111 110
112 113 115 114
116 117 119 118
</DataArray>
<DataArray type="Int32" Name="offsets" format="ascii">
4
8
12
16
20
24
28
32
36
40
44
48
52
56
60
64
68
72
76
80
84
88
92
96
100
104
108
112
116
120
</DataArray>
<DataArray type="UInt8" Name="types" format="ascii">
9
9
9
9
9
9
9
9
9
9
9
9
9
9
9
9
9
9
9
9
9
9
9
9
9
9
9
9
9
9
</DataArray>
</Cells>
<PointData>
<DataArray type="Float32" Name="V1" format="ascii">
5.676989e+01
-1.322431e+00
5.683150e+01
-1.260820e+00
5.693655e+01
-1.327105e+00
5.711119e+01
-1.152460e+00
5.732362e+01
-1.288701e+00
5.761983e+01
-9.924852e-01
5.793934e+01
-1.200196e+00
5.836019e+01
-7.793501e-01
5.879015e+01
-1.060534e+00
5.934059e+01
-5.100869e-01
5.988520e+01
-8.675190e-01
6.057202e+01
-1.807049e-01
6.123621e+01
-6.178039e-01
6.206817e+01
2.141583e-01
6.285721e+01
-3.064850e-01
6.384546e+01
6.817654e-01
6.476415e+01
7.366861e-02
6.592271e+01
1.232228e+00
6.697369e+01
5.335868e-01
6.832029e+01
1.880182e+00
6.950077e+01
1.090457e+00
7.105815e+01
2.647843e+00
7.235339e+01
1.772498e+00
7.415153e+01
3.570644e+00
7.552231e+01
2.628037e+00
7.760206e+01
4.707787e+00
7.896068e+01
3.743219e+00
8.137963e+01
6.162174e+00
8.254459e+01
5.277462e+00
8.538506e+01
8.117934e+00
8.599842e+01
7.537933e+00
8.937153e+01
1.091105e+01
8.875621e+01
1.114396e+01
9.278334e+01
1.517110e+01
8.963888e+01
1.749279e+01
9.452137e+01
2.237529e+01
8.649445e+01
3.061924e+01
9.358135e+01
3.770615e+01
8.832023e+01
4.065366e+01
9.344631e+01
4.577974e+01
9.266639e+01
4.624676e+01
9.757307e+01
5.115343e+01
9.869711e+01
5.034000e+01
1.033983e+02
5.504117e+01
1.054074e+02
5.351864e+01
1.097800e+02
5.789130e+01
1.120952e+02
5.609372e+01
1.160157e+02
6.001426e+01
1.183098e+02
5.821977e+01
1.216938e+02
6.160371e+01
1.237736e+02
5.997810e+01
1.265717e+02
6.277621e+01
1.283223e+02
6.141342e+01
1.305094e+02
6.360049e+01
1.318633e+02
6.255139e+01
1.334283e+02
6.411644e+01
1.343473e+02
6.340714e+01
1.352868e+02
6.434655e+01
1.357506e+02
6.398947e+01
1.360637e+02
6.430259e+01
</DataArray>
<DataArray type="Float32" Name="V2" format="ascii">
4.973485e-01
5.700000e-01
5.003569e-01
5.728642e-01
5.003569e-01
5.728642e-01
5.093180e-01
5.814379e-01
5.093180e-01
5.814379e-01
5.241879e-01
5.956651e-01
5.241879e-01
5.956651e-01
5.448692e-01
6.154525e-01
5.448692e-01
6.154525e-01
5.712254e-01
6.406699e-01
5.712254e-01
6.406699e-01
6.030825e-01
6.711511e-01
6.030825e-01
6.711511e-01
6.402286e-01
7.066942e-01
6.402286e-01
7.066942e-01
6.824154e-01
7.470631e-01
6.824154e-01
7.470631e-01
7.293587e-01
7.919887e-01
7.293587e-01
7.919887e-01
7.807388e-01
8.411712e-01
7.807388e-01
8.411712e-01
8.362009e-01
8.942831e-01
8.362009e-01
8.942831e-01
8.953544e-01
9.509747e-01
8.953544e-01
9.509747e-01
9.577706e-01
1.010883e+00
9.577706e-01
1.010883e+00
1.022976e+00
1.073646e+00
1.022976e+00
1.073646e+00
1.090437e+00
1.138931e+00
1.090437e+00
1.138931e+00
1.159527e+00
1.206473e+00
1.159527e+00
1.206473e+00
1.229441e+00
1.276128e+00
1.229441e+00
1.276128e+00
1.299016e+00
1.347693e+00
1.299016e+00
1.347693e+00
1.366545e+00
1.416343e+00
1.366545e+00
1.416343e+00
1.425455e+00
1.476458e+00
1.425455e+00
1.476458e+00
1.476502e+00
1.529578e+00
1.476502e+00
1.529578e+00
1.520361e+00
1.575484e+00
1.520361e+00
1.575484e+00
1.557684e+00
1.614503e+00
1.557684e+00
1.614503e+00
1.589009e+00
1.647116e+00
1.589009e+00
1.647116e+00
1.614790e+00
1.673824e+00
1.614790e+00
1.673824e+00
1.635400e+00
1.695073e+00
1.635400e+00
1.695073e+00
1.651135e+00
1.711231e+00
1.651135e+00
1.711231e+00
1.662218e+00
1.722577e+00
1.662218e+00
1.722577e+00
1.668807e+00
1.729309e+00
1.668807e+00
1.729309e+00
1.670993e+00
1.731540e+00
</DataArray>
<DataArray type="Float32" Name="V3" format="ascii">
0.000000e+00
0.000000e+00
4.357640e-02
3.972543e-02
4.357640e-02
3.972543e-02
8.663558e-02
7.895196e-02
8.663558e-02
7.895196e-02
1.286598e-01
1.171833e-01
1.286598e-01
1.171833e-01
1.691385e-01
1.539278e-01
1.691385e-01
1.539278e-01
2.075688e-01
1.887018e-01
2.075688e-01
1.887018e-01
2.434585e-01
2.210319e-01
2.434585e-01
2.210319e-01
2.763282e-01
2.504573e-01
2.763282e-01
2.504573e-01
3.057138e-01
2.765330e-01
3.057138e-01
2.765330e-01
3.311689e-01
2.988325e-01
3.311689e-01
2.988325e-01
3.522665e-01
3.169512e-01
3.522665e-01
3.169512e-01
3.686004e-01
3.305105e-01
3.686004e-01
3.305105e-01
3.797863e-01
3.391624e-01
3.797863e-01
3.391624e-01
3.854611e-01
3.425974e-01
3.854611e-01
3.425974e-01
3.852803e-01
3.405531e-01
3.852803e-01
3.405531e-01
3.789119e-01
3.328289e-01
3.789119e-01
3.328289e-01
3.660222e-01
3.193027e-01
3.660222e-01
3.193027e-01
3.462488e-01
2.999351e-01
3.462488e-01
2.999351e-01
3.192337e-01
2.745977e-01
3.192337e-01
2.745977e-01
2.868085e-01
2.436021e-01
2.868085e-01
2.436021e-01
2.572307e-01
2.173589e-01
2.572307e-01
2.173589e-01
2.293482e-01
1.938594e-01
2.293482e-01
1.938594e-01
2.027053e-01
1.719804e-01
2.027053e-01
1.719804e-01
1.768336e-01
1.508545e-01
1.768336e-01
1.508545e-01
1.513997e-01
1.299346e-01
1.513997e-01
1.299346e-01
1.261734e-01
1.089084e-01
1.261734e-01
1.089084e-01
1.010094e-01
8.762647e-02
1.010094e-01
8.762647e-02
7.582755e-02
6.604761e-02
7.582755e-02
6.604761e-02
5.059530e-02
4.419952e-02
5.059530e-02
4.419952e-02
2.531267e-02
2.215227e-02
2.531267e-02
2.215227e-02
0.000000e+00
0.000000e+00
</DataArray>
<DataArray type="Float32" Name="V4" format="ascii">
8.500000e-01
1.000000e+00
8.500000e-01
1.000000e+00
8.500000e-01
1.000000e+00
8.500000e-01
1.000000e+00
8.500000e-01
1.000000e+00
8.500000e-01
1.000000e+00
8.500000e-01
1.000000e+00
8.500000e-01
1.000000e+00
8.500000e-01
1.000000e+00
8.500000e-01
1.000000e+00
8.500000e-01
1.000000e+00
8.500000e-01
1.000000e+00
8.500000e-01
1.000000e+00
8.500000e-01
1.000000e+00
8.500000e-01
1.000000e+00
8.500000e-01
1.000000e+00
8.500000e-01
1.000000e+00
8.500000e-01
1.000000e+00
8.500000e-01
1.000000e+00
8.500000e-01
1.000000e+00
8.500000e-01
1.000000e+00
8.500000e-01
1.000000e+00
8.500000e-01
1.000000e+00
8.500000e-01
1.000000e+00
8.500000e-01
1.000000e+00
8.500000e-01
1.000000e+00
8.500000e-01
1.000000e+00
8.500000e-01
1.000000e+00
8.500000e-01
1.000000e+00
8.500000e-01
1.000000e+00
8.500000e-01
1.000000e+00
8.500000e-01
1.000000e+00
8.500000e-01
1.000000e+00
8.500000e-01
1.000000e+00
8.500000e-01
1.000000e+00
8.500000e-01
1.000000e+00
8.500000e-01
1.000000e+00
8.500000e-01
1.000000e+00
8.500000e-01
1.000000e+00
8.500000e-01
1.000000e+00
8.500000e-01
1.000000e+00
8.500000e-01
1.000000e+00
8.500000e-01
1.000000e+00
8.500000e-01
1.000000e+00
8.500000e-01
1.000000e+00
8.500000e-01
1.000000e+00
8.500000e-01
1.000000e+00
8.500000e-01
1.000000e+00
8.500000e-01
1.000000e+00
8.500000e-01
1.000000e+00
8.500000e-01
1.000000e+00
8.500000e-01
1.000000e+00
8.500000e-01
1.000000e+00
8.500000e-01
1.000000e+00
8.500000e-01
1.000000e+00
8.500000e-01
1.000000e+00
8.500000e-01
1.000000e+00
8.500000e-01
1.000000e+00
8.500000e-01
1.000000e+00
8.500000e-01
1.000000e+00
</DataArray>
<DataArray type="Float32" Name="V5" format="ascii">
0.000000e+00
0.000000e+00
5.235988e-02
5.235988e-02
5.235988e-02
5.235988e-02
1.047198e-01
1.047198e-01
1.047198e-01
1.047198e-01
1.570796e-01
1.570796e-01
1.570796e-01
1.570796e-01
2.094395e-01
2.094395e-01
2.094395e-01
2.094395e-01
2.617994e-01
2.617994e-01
2.617994e-01
2.617994e-01
3.141593e-01
3.141593e-01
3.141593e-01
3.141593e-01
3.665191e-01
3.665191e-01
3.665191e-01
3.665191e-01
4.188790e-01
4.188790e-01
4.188790e-01
4.188790e-01
4.712389e-01
4.712389e-01
4.712389e-01
4.712389e-01
5.235988e-01
5.235988e-01
5.235988e-01
5.235988e-01
5.759587e-01
5.759587e-01
5.759587e-01
5.759587e-01
6.283185e-01
6.283185e-01
6.283185e-01
6.283185e-01
6.806784e-01
6.806784e-01
6.806784e-01
6.806784e-01
7.330383e-01
7.330383e-01
7.330383e-01
7.330383e-01
7.853982e-01
7.853982e-01
7.853982e-01
7.853982e-01
8.377580e-01
8.377580e-01
8.377580e-01
8.377580e-01
8.901179e-01
8.901179e-01
8.901179e-01
8.901179e-01
9.424778e-01
9.424778e-01
9.424778e-01
9.424778e-01
9.948377e-01
9.948377e-01
9.948377e-01
9.948377e-01
1.047198e+00
1.047198e+00
1.047198e+00
1.047198e+00
1.099557e+00
1.099557e+00
1.099557e+00
1.099557e+00
1.151917e+00
1.151917e+00
1.151917e+00
1.151917e+00
1.204277e+00
1.204277e+00
1.204277e+00
1.204277e+00
1.256637e+00
1.256637e+00
1.256637e+00
1.256637e+00
1.308997e+00
1.308997e+00
1.308997e+00
1.308997e+00
1.361357e+00
1.361357e+00
1.361357e+00
1.361357e+00
1.413717e+00
1.413717e+00
1.413717e+00
1.413717e+00
1.466077e+00
1.466077e+00
1.466077e+00
1.466077e+00
1.518436e+00
1.518436e+00
1.518436e+00
1.518436e+00
1.570796e+00
1.570796e+00
</DataArray>
</PointData>
</Piece></UnstructuredGrid>
</VTKFile>
