<?xml version="1.0"?>
<VTKFile type="UnstructuredGrid" version="0.1" byte_order="LittleEndian" compressor="vtkZLibDataCompressor">
<UnstructuredGrid>
<Piece NumberOfPoints="120" NumberOfCells="30">
<Points>
<DataArray type="Float32" NumberOfComponents="3" format="ascii">
0.000000e+00 4.493799e-01 0.000000e+00
0.000000e+00 5.100000e-01 0.000000e+00
7.629708e-02 4.494201e-01 0.000000e+00
7.626795e-02 5.100000e-01 0.000000e+00
7.629708e-02 4.494201e-01 0.000000e+00
7.626795e-02 5.100000e-01 0.000000e+00
1.525850e-01 4.494862e-01 0.000000e+00
1.525257e-01 5.100000e-01 0.000000e+00
1.525850e-01 4.494862e-01 0.000000e+00
1.525257e-01 5.100000e-01 0.000000e+00
2.288508e-01 4.495960e-01 0.000000e+00
2.287620e-01 5.100000e-01 0.000000e+00
2.288508e-01 4.495960e-01 0.000000e+00
2.287620e-01 5.100000e-01 0.000000e+00
3.050835e-01 4.497495e-01 0.000000e+00
3.049658e-01 5.100000e-01 0.000000e+00
3.050835e-01 4.497495e-01 0.000000e+00
3.049658e-01 5.100000e-01 0.000000e+00
3.812715e-01 4.499460e-01 0.000000e+00
3.811257e-01 5.100000e-01 0.000000e+00
3.812715e-01 4.499460e-01 0.000000e+00
3.811257e-01 5.100000e-01 0.000000e+00
4.574028e-01 4.501848e-01 0.000000e+00
4.572300e-01 5.100000e-01 0.000000e+00
4.574028e-01 4.501848e-01 0.000000e+00
4.572300e-01 5.100000e-01 0.000000e+00
5.334645e-01 4.504653e-01 0.000000e+00
5.332667e-01 5.100000e-01 0.000000e+00
5.334645e-01 4.504653e-01 0.000000e+00
5.332667e-01 5.100000e-01 0.000000e+00
6.094430e-01 4.507863e-01 0.000000e+00
6.092231e-01 5.100000e-01 0.000000e+00
6.094430e-01 4.507863e-01 0.000000e+00
6.092231e-01 5.100000e-01 0.000000e+00
6.853234e-01 4.511469e-01 0.000000e+00
6.850863e-01 5.100000e-01 0.000000e+00
6.853234e-01 4.511469e-01 0.000000e+00
6.850863e-01 5.100000e-01 0.000000e+00
7.610895e-01 4.515459e-01 0.000000e+00
7.608434e-01 5.100000e-01 0.000000e+00
7.610895e-01 4.515459e-01 0.000000e+00
7.608434e-01 5.100000e-01 0.000000e+00
8.367228e-01 4.519819e-01 0.000000e+00
8.364820e-01 5.100000e-01 0.000000e+00
8.367228e-01 4.519819e-01 0.000000e+00
8.364820e-01 5.100000e-01 0.000000e+00
9.122019e-01 4.524534e-01 0.000000e+00
9.119914e-01 5.100000e-01 0.000000e+00
9.122019e-01 4.524534e-01 0.000000e+00
9.119914e-01 5.100000e-01 0.000000e+00
9.875012e-01 4.529584e-01 0.000000e+00
9.873653e-01 5.100000e-01 0.000000e+00
9.875012e-01 4.529584e-01 0.000000e+00
9.873653e-01 5.100000e-01 0.000000e+00
1.062588e+00 4.534945e-01 0.000000e+00
1.062605e+00 5.100000e-01 0.000000e+00
1.062588e+00 4.534945e-01 0.000000e+00
1.062605e+00 5.100000e-01 0.000000e+00
1.137416e+00 4.540582e-01 0.000000e+00
1.137730e+00 5.100000e-01 0.000000e+00
1.137416e+00 4.540582e-01 0.000000e+00
1.137730e+00 5.100000e-01 0.000000e+00
1.211921e+00 4.546438e-01 0.000000e+00
1.212788e+00 5.100000e-01 0.000000e+00
1.211921e+00 4.546438e-01 0.000000e+00
1.212788e+00 5.100000e-01 0.000000e+00
1.285997e+00 4.552433e-01 0.000000e+00
1.287889e+00 5.100000e-01 0.000000e+00
1.285997e+00 4.552433e-01 0.000000e+00
1.287889e+00 5.100000e-01 0.000000e+00
1.359466e+00 4.558506e-01 0.000000e+00
1.363244e+00 5.100000e-01 0.000000e+00
1.359466e+00 4.558506e-01 0.000000e+00
1.363244e+00 5.100000e-01 0.000000e+00
1.431986e+00 4.564816e-01 0.000000e+00
1.439233e+00 5.100000e-01 0.000000e+00
1.431986e+00 4.564816e-01 0.000000e+00
1.439233e+00 5.100000e-01 0.000000e+00
1.502915e+00 4.571651e-01 0.000000e+00
1.516199e+00 5.100000e-01 0.000000e+00
1.502915e+00 4.571651e-01 0.000000e+00
1.516199e+00 5.100000e-01 0.000000e+00
1.572180e+00 4.546462e-01 0.000000e+00
1.589579e+00 5.053810e-01 0.000000e+00
1.572180e+00 4.546462e-01 0.000000e+00
1.589579e+00 5.053810e-01 0.000000e+00
1.637469e+00 4.353825e-01 0.000000e+00
1.660420e+00 4.827616e-01 0.000000e+00
1.637469e+00 4.353825e-01 0.000000e+00
1.660420e+00 4.827616e-01 0.000000e+00
1.696865e+00 4.039455e-01 0.000000e+00
1.725964e+00 4.469285e-01 0.000000e+00
1.696865e+00 4.039455e-01 0.000000e+00
1.725964e+00 4.469285e-01 0.000000e+00
1.749325e+00 3.625192e-01 0.000000e+00
1.784114e+00 4.002020e-01 0.000000e+00
1.749325e+00 3.625192e-01 0.000000e+00
1.784114e+00 4.002020e-01 0.000000e+00
1.794244e+00 3.131019e-01 0.000000e+00
1.833829e+00 3.448879e-01 0.000000e+00
1.794244e+00 3.131019e-01 0.000000e+00
1.833829e+00 3.448879e-01 0.000000e+00
1.831257e+00 2.574239e-01 0.000000e+00
1.874633e+00 2.829895e-01 0.000000e+00
1.831257e+00 2.574239e-01 0.000000e+00
1.874633e+00 2.829895e-01 0.000000e+00
1.860160e+00 1.969975e-01 0.000000e+00
1.906358e+00 2.162004e-01 0.000000e+00
1.860160e+00 1.969975e-01 0.000000e+00
1.906358e+00 2.162004e-01 0.000000e+00
1.880847e+00 1.331603e-01 0.000000e+00
1.928980e+00 1.459588e-01 0.000000e+00
1.880847e+00 1.331603e-01 0.000000e+00
1.928980e+00 1.459588e-01 0.000000e+00
1.893272e+00 6.712029e-02 0.000000e+00
1.942531e+00 7.351525e-02 0.000000e+00
1.893272e+00 6.712029e-02 0.000000e+00
1.942531e+00 7.351525e-02 0.000000e+00
1.897415e+00 9.290860e-12 0.000000e+00
1.947043e+00 9.533870e-12 0.000000e+00
</DataArray>
</Points>
<Cells>
<DataArray type="Int32" Name="connectivity" format="ascii">
0 1 3 2
4 5 7 6
8 9 11 10
12 13 15 14
16 17 19 18
20 21 23 22
24 25 27 26
28 29 31 30
32 33 35 34
36 37 39 38
40 41 43 42
44 45 47 46
48 49 51 50
52 53 55 54
56 57 59 58
60 61 63 62
64 65 67 66
68 69 71 70
72 73 75 74
76 77 79 78
80 81 83 82
84 85 87 86
88 89 91 90
92 93 95 94
96 97 99 98
100 101 103 102
104 105 107 106
108 109 111 110
112 113 115 114
116 117 119 118
</DataArray>
<DataArray type="Int32" Name="offsets" format="ascii">
4
8
12
16
20
24
28
32
36
40
44
48
52
56
60
64
68
72
76
80
84
88
92
96
100
104
108
112
116
120
</DataArray>
<DataArray type="UInt8" Name="types" format="ascii">
9
9
9
9
9
9
9
9
9
9
9
9
9
9
9
9
9
9
9
9
9
9
9
9
9
9
9
9
9
9
</DataArray>
</Cells>
<PointData>
<DataArray type="Float32" Name="V1" format="ascii">
1.191875e+02
8.620434e-01
1.193091e+02
9.836543e-01
1.195095e+02
8.560877e-01
1.198586e+02
1.205199e+00
1.202626e+02
9.444551e-01
1.208535e+02
1.535282e+00
1.214625e+02
1.138426e+00
1.223009e+02
1.976773e+00
1.231216e+02
1.439891e+00
1.242174e+02
2.535690e+00
1.252584e+02
1.852946e+00
1.266250e+02
3.219522e+00
1.278973e+02
2.383473e+00
1.295517e+02
4.037918e+00
1.310682e+02
3.039460e+00
1.330319e+02
5.003160e+00
1.348077e+02
3.831568e+00
1.371070e+02
6.130947e+00
1.391582e+02
4.774069e+00
1.418258e+02
7.441643e+00
1.441683e+02
5.886516e+00
1.472442e+02
8.962397e+00
1.498907e+02
7.196551e+00
1.534249e+02
1.073073e+01
1.563782e+02
8.745019e+00
1.604341e+02
1.280093e+01
1.636745e+02
1.059532e+01
1.683348e+02
1.525556e+01
1.717959e+02
1.285100e+01
1.771716e+02
1.822668e+01
1.806933e+02
1.569000e+01
1.869382e+02
2.193490e+01
1.901797e+02
1.943450e+01
1.975061e+02
2.676087e+01
1.997913e+02
2.470379e+01
2.084600e+02
3.337253e+01
2.085303e+02
3.277075e+01
2.187150e+02
4.295542e+01
2.141566e+02
4.651306e+01
2.258938e+02
5.825023e+01
2.118566e+02
7.377586e+01
2.284895e+02
9.040881e+01
2.216397e+02
9.233023e+01
2.345489e+02
1.052394e+02
2.361484e+02
1.040659e+02
2.485277e+02
1.164452e+02
2.532110e+02
1.131903e+02
2.648273e+02
1.248066e+02
2.706393e+02
1.205856e+02
2.810966e+02
1.310429e+02
2.868963e+02
1.267046e+02
2.958300e+02
1.356384e+02
3.009669e+02
1.317371e+02
3.081161e+02
1.388863e+02
3.122097e+02
1.357563e+02
3.174083e+02
1.409550e+02
3.202368e+02
1.387868e+02
3.233885e+02
1.419385e+02
3.248297e+02
1.408329e+02
3.258852e+02
1.418884e+02
</DataArray>
<DataArray type="Float32" Name="V2" format="ascii">
4.493799e-01
5.100000e-01
4.527973e-01
5.132926e-01
4.527973e-01
5.132926e-01
4.629733e-01
5.231494e-01
4.629733e-01
5.231494e-01
4.798609e-01
5.395073e-01
4.798609e-01
5.395073e-01
5.033518e-01
5.622612e-01
5.033518e-01
5.622612e-01
5.332948e-01
5.912648e-01
5.332948e-01
5.912648e-01
5.694965e-01
6.263307e-01
5.694965e-01
6.263307e-01
6.117221e-01
6.672317e-01
6.117221e-01
6.672317e-01
6.596966e-01
7.137015e-01
6.596966e-01
7.137015e-01
7.131052e-01
7.654360e-01
7.131052e-01
7.654360e-01
7.715950e-01
8.220947e-01
7.715950e-01
8.220947e-01
8.347758e-01
8.833027e-01
8.347758e-01
8.833027e-01
9.022213e-01
9.486538e-01
9.022213e-01
9.486538e-01
9.734694e-01
1.017714e+00
9.734694e-01
1.017714e+00
1.048022e+00
1.090026e+00
1.048022e+00
1.090026e+00
1.125342e+00
1.165121e+00
1.125342e+00
1.165121e+00
1.204849e+00
1.242534e+00
1.204849e+00
1.242534e+00
1.285901e+00
1.321831e+00
1.285901e+00
1.321831e+00
1.367773e+00
1.402658e+00
1.367773e+00
1.402658e+00
1.449582e+00
1.484809e+00
1.449582e+00
1.484809e+00
1.530145e+00
1.568067e+00
1.530145e+00
1.568067e+00
1.607228e+00
1.645763e+00
1.607228e+00
1.645763e+00
1.672989e+00
1.713226e+00
1.672989e+00
1.713226e+00
1.728921e+00
1.771491e+00
1.728921e+00
1.771491e+00
1.775731e+00
1.820462e+00
1.775731e+00
1.820462e+00
1.814143e+00
1.860606e+00
1.814143e+00
1.860606e+00
1.844761e+00
1.892505e+00
1.844761e+00
1.892505e+00
1.868075e+00
1.916709e+00
1.868075e+00
1.916709e+00
1.884463e+00
1.933670e+00
1.884463e+00
1.933670e+00
1.894190e+00
1.943716e+00
1.894190e+00
1.943716e+00
1.897415e+00
1.947043e+00
</DataArray>
<DataArray type="Float32" Name="V3" format="ascii">
0.000000e+00
0.000000e+00
5.267169e-02
4.947209e-02
5.267169e-02
4.947209e-02
1.047650e-01
9.838067e-02
1.047650e-01
9.838067e-02
1.557009e-01
1.461640e-01
1.557009e-01
1.461640e-01
2.049085e-01
1.922666e-01
2.049085e-01
1.922666e-01
2.518254e-01
2.361414e-01
2.518254e-01
2.361414e-01
2.959011e-01
2.772529e-01
2.959011e-01
2.772529e-01
3.365997e-01
3.150797e-01
3.365997e-01
3.150797e-01
3.734026e-01
3.491173e-01
3.734026e-01
3.491173e-01
4.058112e-01
3.788812e-01
4.058112e-01
3.788812e-01
4.333499e-01
4.039097e-01
4.333499e-01
4.039097e-01
4.555678e-01
4.237669e-01
4.555678e-01
4.237669e-01
4.720414e-01
4.380461e-01
4.720414e-01
4.380461e-01
4.823766e-01
4.463735e-01
4.823766e-01
4.463735e-01
4.862093e-01
4.484131e-01
4.862093e-01
4.484131e-01
4.832069e-01
4.438721e-01
4.832069e-01
4.438721e-01
4.730671e-01
4.325100e-01
4.730671e-01
4.325100e-01
4.555138e-01
4.141502e-01
4.555138e-01
4.141502e-01
4.302833e-01
3.886960e-01
4.302833e-01
3.886960e-01
3.970776e-01
3.561407e-01
3.970776e-01
3.561407e-01
3.555411e-01
3.164267e-01
3.555411e-01
3.164267e-01
3.086620e-01
2.713560e-01
3.086620e-01
2.713560e-01
2.682770e-01
2.343288e-01
2.682770e-01
2.343288e-01
2.309865e-01
2.012864e-01
2.309865e-01
2.012864e-01
1.957949e-01
1.707068e-01
1.957949e-01
1.707068e-01
1.619512e-01
1.414936e-01
1.619512e-01
1.414936e-01
1.289411e-01
1.129526e-01
1.289411e-01
1.129526e-01
9.642094e-02
8.468144e-02
9.642094e-02
8.468144e-02
6.417123e-02
5.647413e-02
6.417123e-02
5.647413e-02
3.205788e-02
2.824969e-02
3.205788e-02
2.824969e-02
0.000000e+00
0.000000e+00
</DataArray>
<DataArray type="Float32" Name="V4" format="ascii">
8.500000e-01
1.000000e+00
8.500000e-01
1.000000e+00
8.500000e-01
1.000000e+00
8.500000e-01
1.000000e+00
8.500000e-01
1.000000e+00
8.500000e-01
1.000000e+00
8.500000e-01
1.000000e+00
8.500000e-01
1.000000e+00
8.500000e-01
1.000000e+00
8.500000e-01
1.000000e+00
8.500000e-01
1.000000e+00
8.500000e-01
1.000000e+00
8.500000e-01
1.000000e+00
8.500000e-01
1.000000e+00
8.500000e-01
1.000000e+00
8.500000e-01
1.000000e+00
8.500000e-01
1.000000e+00
8.500000e-01
1.000000e+00
8.500000e-01
1.000000e+00
8.500000e-01
1.000000e+00
8.500000e-01
1.000000e+00
8.500000e-01
1.000000e+00
8.500000e-01
1.000000e+00
8.500000e-01
1.000000e+00
8.500000e-01
1.000000e+00
8.500000e-01
1.000000e+00
8.500000e-01
1.000000e+00
8.500000e-01
1.000000e+00
8.500000e-01
1.000000e+00
8.500000e-01
1.000000e+00
8.500000e-01
1.000000e+00
8.500000e-01
1.000000e+00
8.500000e-01
1.000000e+00
8.500000e-01
1.000000e+00
8.500000e-01
1.000000e+00
8.500000e-01
1.000000e+00
8.500000e-01
1.000000e+00
8.500000e-01
1.000000e+00
8.500000e-01
1.000000e+00
8.500000e-01
1.000000e+00
8.500000e-01
1.000000e+00
8.500000e-01
1.000000e+00
8.500000e-01
1.000000e+00
8.500000e-01
1.000000e+00
8.500000e-01
1.000000e+00
8.500000e-01
1.000000e+00
8.500000e-01
1.000000e+00
8.500000e-01
1.000000e+00
8.500000e-01
1.000000e+00
8.500000e-01
1.000000e+00
8.500000e-01
1.000000e+00
8.500000e-01
1.000000e+00
8.500000e-01
1.000000e+00
8.500000e-01
1.000000e+00
8.500000e-01
1.000000e+00
8.500000e-01
1.000000e+00
8.500000e-01
1.000000e+00
8.500000e-01
1.000000e+00
8.500000e-01
1.000000e+00
8.500000e-01
1.000000e+00
</DataArray>
<DataArray type="Float32" Name="V5" format="ascii">
0.000000e+00
0.000000e+00
5.235988e-02
5.235988e-02
5.235988e-02
5.235988e-02
1.047198e-01
1.047198e-01
1.047198e-01
1.047198e-01
1.570796e-01
1.570796e-01
1.570796e-01
1.570796e-01
2.094395e-01
2.094395e-01
2.094395e-01
2.094395e-01
2.617994e-01
2.617994e-01
2.617994e-01
2.617994e-01
3.141593e-01
3.141593e-01
3.141593e-01
3.141593e-01
3.665191e-01
3.665191e-01
3.665191e-01
3.665191e-01
4.188790e-01
4.188790e-01
4.188790e-01
4.188790e-01
4.712389e-01
4.712389e-01
4.712389e-01
4.712389e-01
5.235988e-01
5.235988e-01
5.235988e-01
5.235988e-01
5.759587e-01
5.759587e-01
5.759587e-01
5.759587e-01
6.283185e-01
6.283185e-01
6.283185e-01
6.283185e-01
6.806784e-01
6.806784e-01
6.806784e-01
6.806784e-01
7.330383e-01
7.330383e-01
7.330383e-01
7.330383e-01
7.853982e-01
7.853982e-01
7.853982e-01
7.853982e-01
8.377580e-01
8.377580e-01
8.377580e-01
8.377580e-01
8.901179e-01
8.901179e-01
8.901179e-01
8.901179e-01
9.424778e-01
9.424778e-01
9.424778e-01
9.424778e-01
9.948377e-01
9.948377e-01
9.948377e-01
9.948377e-01
1.047198e+00
1.047198e+00
1.047198e+00
1.047198e+00
1.099557e+00
1.099557e+00
1.099557e+00
1.099557e+00
1.151917e+00
1.151917e+00
1.151917e+00
1.151917e+00
1.204277e+00
1.204277e+00
1.204277e+00
1.204277e+00
1.256637e+00
1.256637e+00
1.256637e+00
1.256637e+00
1.308997e+00
1.308997e+00
1.308997e+00
1.308997e+00
1.361357e+00
1.361357e+00
1.361357e+00
1.361357e+00
1.413717e+00
1.413717e+00
1.413717e+00
1.413717e+00
1.466077e+00
1.466077e+00
1.466077e+00
1.466077e+00
1.518436e+00
1.518436e+00
1.518436e+00
1.518436e+00
1.570796e+00
1.570796e+00
</DataArray>
</PointData>
</Piece></UnstructuredGrid>
</VTKFile>
