<?xml version="1.0"?>
<VTKFile type="UnstructuredGrid" version="0.1" byte_order="LittleEndian" compressor="vtkZLibDataCompressor">
<UnstructuredGrid>
<Piece NumberOfPoints="120" NumberOfCells="30">
<Points>
<DataArray type="Float32" NumberOfComponents="3" format="ascii">
0.000000e+00 4.110280e-01 0.000000e+00
0.000000e+00 4.600000e-01 0.000000e+00
8.488724e-02 4.110684e-01 0.000000e+00
8.487265e-02 4.600000e-01 0.000000e+00
8.488724e-02 4.110684e-01 0.000000e+00
8.487265e-02 4.600000e-01 0.000000e+00
1.697648e-01 4.111225e-01 0.000000e+00
1.697349e-01 4.600000e-01 0.000000e+00
1.697648e-01 4.111225e-01 0.000000e+00
1.697349e-01 4.600000e-01 0.000000e+00
2.546187e-01 4.112120e-01 0.000000e+00
2.545737e-01 4.600000e-01 0.000000e+00
2.546187e-01 4.112120e-01 0.000000e+00
2.545737e-01 4.600000e-01 0.000000e+00
3.394372e-01 4.113371e-01 0.000000e+00
3.393771e-01 4.600000e-01 0.000000e+00
3.394372e-01 4.113371e-01 0.000000e+00
3.393771e-01 4.600000e-01 0.000000e+00
4.242080e-01 4.114974e-01 0.000000e+00
4.241329e-01 4.600000e-01 0.000000e+00
4.242080e-01 4.114974e-01 0.000000e+00
4.241329e-01 4.600000e-01 0.000000e+00
5.089183e-01 4.116924e-01 0.000000e+00
5.088284e-01 4.600000e-01 0.000000e+00
5.089183e-01 4.116924e-01 0.000000e+00
5.088284e-01 4.600000e-01 0.000000e+00
5.935548e-01 4.119215e-01 0.000000e+00
5.934504e-01 4.600000e-01 0.000000e+00
5.935548e-01 4.119215e-01 0.000000e+00
5.934504e-01 4.600000e-01 0.000000e+00
6.781034e-01 4.121840e-01 0.000000e+00
6.779849e-01 4.600000e-01 0.000000e+00
6.781034e-01 4.121840e-01 0.000000e+00
6.779849e-01 4.600000e-01 0.000000e+00
7.625490e-01 4.124791e-01 0.000000e+00
7.624175e-01 4.600000e-01 0.000000e+00
7.625490e-01 4.124791e-01 0.000000e+00
7.624175e-01 4.600000e-01 0.000000e+00
8.468754e-01 4.128060e-01 0.000000e+00
8.467330e-01 4.600000e-01 0.000000e+00
8.468754e-01 4.128060e-01 0.000000e+00
8.467330e-01 4.600000e-01 0.000000e+00
9.310651e-01 4.131636e-01 0.000000e+00
9.309155e-01 4.600000e-01 0.000000e+00
9.310651e-01 4.131636e-01 0.000000e+00
9.309155e-01 4.600000e-01 0.000000e+00
1.015099e+00 4.135508e-01 0.000000e+00
1.014949e+00 4.600000e-01 0.000000e+00
1.015099e+00 4.135508e-01 0.000000e+00
1.014949e+00 4.600000e-01 0.000000e+00
1.098954e+00 4.139660e-01 0.000000e+00
1.098818e+00 4.600000e-01 0.000000e+00
1.098954e+00 4.139660e-01 0.000000e+00
1.098818e+00 4.600000e-01 0.000000e+00
1.182607e+00 4.144075e-01 0.000000e+00
1.182508e+00 4.600000e-01 0.000000e+00
1.182607e+00 4.144075e-01 0.000000e+00
1.182508e+00 4.600000e-01 0.000000e+00
1.266027e+00 4.148726e-01 0.000000e+00
1.266010e+00 4.600000e-01 0.000000e+00
1.266027e+00 4.148726e-01 0.000000e+00
1.266010e+00 4.600000e-01 0.000000e+00
1.349174e+00 4.153569e-01 0.000000e+00
1.349322e+00 4.600000e-01 0.000000e+00
1.349174e+00 4.153569e-01 0.000000e+00
1.349322e+00 4.600000e-01 0.000000e+00
1.431999e+00 4.158537e-01 0.000000e+00
1.432461e+00 4.600000e-01 0.000000e+00
1.431999e+00 4.158537e-01 0.000000e+00
1.432461e+00 4.600000e-01 0.000000e+00
1.514425e+00 4.163524e-01 0.000000e+00
1.515477e+00 4.600000e-01 0.000000e+00
1.514425e+00 4.163524e-01 0.000000e+00
1.515477e+00 4.600000e-01 0.000000e+00
1.596335e+00 4.168410e-01 0.000000e+00
1.598493e+00 4.600000e-01 0.000000e+00
1.596335e+00 4.168410e-01 0.000000e+00
1.598493e+00 4.600000e-01 0.000000e+00
1.677524e+00 4.173228e-01 0.000000e+00
1.681757e+00 4.600000e-01 0.000000e+00
1.677524e+00 4.173228e-01 0.000000e+00
1.681757e+00 4.600000e-01 0.000000e+00
1.757595e+00 4.178627e-01 0.000000e+00
1.765716e+00 4.600000e-01 0.000000e+00
1.757595e+00 4.178627e-01 0.000000e+00
1.765716e+00 4.600000e-01 0.000000e+00
1.836050e+00 4.184808e-01 0.000000e+00
1.849444e+00 4.600000e-01 0.000000e+00
1.836050e+00 4.184808e-01 0.000000e+00
1.849444e+00 4.600000e-01 0.000000e+00
1.912332e+00 4.079656e-01 0.000000e+00
1.929297e+00 4.463116e-01 0.000000e+00
1.912332e+00 4.079656e-01 0.000000e+00
1.929297e+00 4.463116e-01 0.000000e+00
1.982024e+00 3.780304e-01 0.000000e+00
2.003888e+00 4.128490e-01 0.000000e+00
1.982024e+00 3.780304e-01 0.000000e+00
2.003888e+00 4.128490e-01 0.000000e+00
2.042617e+00 3.338967e-01 0.000000e+00
2.069562e+00 3.641669e-01 0.000000e+00
2.042617e+00 3.338967e-01 0.000000e+00
2.069562e+00 3.641669e-01 0.000000e+00
2.092972e+00 2.789348e-01 0.000000e+00
2.124341e+00 3.037932e-01 0.000000e+00
2.092972e+00 2.789348e-01 0.000000e+00
2.124341e+00 3.037932e-01 0.000000e+00
2.132531e+00 2.158649e-01 0.000000e+00
2.167341e+00 2.347826e-01 0.000000e+00
2.132531e+00 2.158649e-01 0.000000e+00
2.167341e+00 2.347826e-01 0.000000e+00
2.160968e+00 1.470029e-01 0.000000e+00
2.198183e+00 1.597091e-01 0.000000e+00
2.160968e+00 1.470029e-01 0.000000e+00
2.198183e+00 1.597091e-01 0.000000e+00
2.178091e+00 7.441301e-02 0.000000e+00
2.216717e+00 8.078761e-02 0.000000e+00
2.178091e+00 7.441301e-02 0.000000e+00
2.216717e+00 8.078761e-02 0.000000e+00
2.183808e+00 1.069321e-11 0.000000e+00
2.222898e+00 1.088462e-11 0.000000e+00
</DataArray>
</Points>
<Cells>
<DataArray type="Int32" Name="connectivity" format="ascii">
0 1 3 2
4 5 7 6
8 9 11 10
12 13 15 14
16 17 19 18
20 21 23 22
24 25 27 26
28 29 31 30
32 33 35 34
36 37 39 38
40 41 43 42
44 45 47 46
48 49 51 50
52 53 55 54
56 57 59 58
60 61 63 62
64 65 67 66
68 69 71 70
72 73 75 74
76 77 79 78
80 81 83 82
84 85 87 86
88 89 91 90
92 93 95 94
96 97 99 98
100 101 103 102
104 105 107 106
108 109 111 110
112 113 115 114
116 117 119 118
</DataArray>
<DataArray type="Int32" Name="offsets" format="ascii">
4
8
12
16
20
24
28
32
36
40
44
48
52
56
60
64
68
72
76
80
84
88
92
96
100
104
108
112
116
120
</DataArray>
<DataArray type="UInt8" Name="types" format="ascii">
9
9
9
9
9
9
9
9
9
9
9
9
9
9
9
9
9
9
9
9
9
9
9
9
9
9
9
9
9
9
</DataArray>
</Cells>
<PointData>
<DataArray type="Float32" Name="V1" format="ascii">
2.789475e+02
1.536983e+01
2.792254e+02
1.564767e+01
2.796497e+02
1.536794e+01
2.804454e+02
1.616371e+01
2.813029e+02
1.560086e+01
2.826439e+02
1.694185e+01
2.839410e+02
1.608871e+01
2.858399e+02
1.798756e+01
2.875912e+02
1.683584e+01
2.900703e+02
1.931503e+01
2.922946e+02
1.785157e+01
2.953841e+02
2.094105e+01
2.981057e+02
1.914909e+01
3.018435e+02
2.288690e+01
3.050925e+02
2.074566e+01
3.095259e+02
2.517903e+01
3.133386e+02
2.266334e+01
3.185254e+02
2.785014e+01
3.229441e+02
2.493005e+01
3.289548e+02
3.094070e+01
3.340281e+02
2.758110e+01
3.409481e+02
3.450113e+01
3.467291e+02
3.066172e+01
3.546627e+02
3.859530e+01
3.612058e+02
3.423115e+01
3.702809e+02
4.330624e+01
3.776344e+02
3.836949e+01
3.880105e+02
4.874559e+01
3.962008e+02
4.319004e+01
4.080810e+02
5.507022e+01
4.170812e+02
4.886150e+01
4.307314e+02
6.251173e+01
4.403998e+02
5.565064e+01
4.561787e+02
7.142946e+01
4.661440e+02
6.400822e+01
4.845409e+02
8.240520e+01
4.939968e+02
7.475665e+01
5.156484e+02
9.640818e+01
5.230218e+02
8.953106e+01
5.485698e+02
1.150791e+02
5.510384e+02
1.118350e+02
5.804796e+02
1.412763e+02
5.690192e+02
1.505471e+02
6.071897e+02
1.887176e+02
5.891154e+02
2.063548e+02
6.284368e+02
2.456762e+02
6.278546e+02
2.441326e+02
6.634049e+02
2.796828e+02
6.755540e+02
2.724175e+02
7.087531e+02
3.056165e+02
7.251358e+02
2.952679e+02
7.547852e+02
3.249173e+02
7.711433e+02
3.139154e+02
7.958116e+02
3.385838e+02
8.095631e+02
3.289186e+02
8.280269e+02
3.473825e+02
8.377563e+02
3.403561e+02
8.491585e+02
3.517582e+02
8.541658e+02
3.480900e+02
8.580186e+02
3.519428e+02
</DataArray>
<DataArray type="Float32" Name="V2" format="ascii">
4.110280e-01
4.600000e-01
4.149477e-01
4.638115e-01
4.149477e-01
4.638115e-01
4.266156e-01
4.752222e-01
4.266156e-01
4.752222e-01
4.459805e-01
4.941607e-01
4.459805e-01
4.941607e-01
4.729214e-01
5.205084e-01
4.729214e-01
5.205084e-01
5.072691e-01
5.540996e-01
5.072691e-01
5.540996e-01
5.488071e-01
5.947226e-01
5.488071e-01
5.947226e-01
5.972729e-01
6.421206e-01
5.972729e-01
6.421206e-01
6.523583e-01
6.959922e-01
6.523583e-01
6.959922e-01
7.137116e-01
7.559933e-01
7.137116e-01
7.559933e-01
7.809382e-01
8.217382e-01
7.809382e-01
8.217382e-01
8.536026e-01
8.928014e-01
8.536026e-01
8.928014e-01
9.312296e-01
9.687200e-01
9.312296e-01
9.687200e-01
1.013306e+00
1.048996e+00
1.013306e+00
1.048996e+00
1.099283e+00
1.133099e+00
1.099283e+00
1.133099e+00
1.188575e+00
1.220474e+00
1.188575e+00
1.220474e+00
1.280560e+00
1.310542e+00
1.280560e+00
1.310542e+00
1.374577e+00
1.402718e+00
1.374577e+00
1.402718e+00
1.469921e+00
1.496428e+00
1.469921e+00
1.496428e+00
1.565827e+00
1.591143e+00
1.565827e+00
1.591143e+00
1.661440e+00
1.686444e+00
1.661440e+00
1.686444e+00
1.755734e+00
1.782100e+00
1.755734e+00
1.782100e+00
1.847526e+00
1.876650e+00
1.847526e+00
1.876650e+00
1.931517e+00
1.961098e+00
1.931517e+00
1.961098e+00
2.001834e+00
2.033388e+00
2.001834e+00
2.033388e+00
2.059436e+00
2.093297e+00
2.059436e+00
2.093297e+00
2.105229e+00
2.141081e+00
2.105229e+00
2.141081e+00
2.140044e+00
2.177385e+00
2.140044e+00
2.177385e+00
2.164496e+00
2.202835e+00
2.164496e+00
2.202835e+00
2.179001e+00
2.217907e+00
2.179001e+00
2.217907e+00
2.183808e+00
2.222898e+00
</DataArray>
<DataArray type="Float32" Name="V3" format="ascii">
0.000000e+00
0.000000e+00
6.325725e-02
6.068180e-02
6.325725e-02
6.068180e-02
1.258608e-01
1.207220e-01
1.258608e-01
1.207220e-01
1.871562e-01
1.794796e-01
1.871562e-01
1.794796e-01
2.464979e-01
2.363215e-01
2.464979e-01
2.363215e-01
3.032501e-01
2.906242e-01
3.032501e-01
2.906242e-01
3.567901e-01
3.417767e-01
3.567901e-01
3.417767e-01
4.065117e-01
3.891844e-01
4.065117e-01
3.891844e-01
4.518280e-01
4.322712e-01
4.518280e-01
4.322712e-01
4.921745e-01
4.704833e-01
4.921745e-01
4.704833e-01
5.270126e-01
5.032923e-01
5.270126e-01
5.032923e-01
5.558319e-01
5.301975e-01
5.558319e-01
5.301975e-01
5.781530e-01
5.507299e-01
5.781530e-01
5.507299e-01
5.935307e-01
5.644547e-01
5.935307e-01
5.644547e-01
6.015556e-01
5.709750e-01
6.015556e-01
5.709750e-01
6.018568e-01
5.699353e-01
6.018568e-01
5.699353e-01
5.941035e-01
5.610261e-01
5.941035e-01
5.610261e-01
5.780070e-01
5.439895e-01
5.780070e-01
5.439895e-01
5.533204e-01
5.186273e-01
5.533204e-01
5.186273e-01
5.198339e-01
4.848133e-01
5.198339e-01
4.848133e-01
4.773501e-01
4.425068e-01
4.773501e-01
4.425068e-01
4.256128e-01
3.917552e-01
4.256128e-01
3.917552e-01
3.644874e-01
3.320058e-01
3.644874e-01
3.320058e-01
3.044497e-01
2.747306e-01
3.044497e-01
2.747306e-01
2.529508e-01
2.265927e-01
2.529508e-01
2.265927e-01
2.061488e-01
1.838840e-01
2.061488e-01
1.838840e-01
1.623140e-01
1.445207e-01
1.623140e-01
1.445207e-01
1.203941e-01
1.071547e-01
1.203941e-01
1.071547e-01
7.968502e-02
7.093846e-02
7.968502e-02
7.093846e-02
3.968146e-02
3.533712e-02
3.968146e-02
3.533712e-02
0.000000e+00
0.000000e+00
</DataArray>
<DataArray type="Float32" Name="V4" format="ascii">
8.500000e-01
1.000000e+00
8.500000e-01
1.000000e+00
8.500000e-01
1.000000e+00
8.500000e-01
1.000000e+00
8.500000e-01
1.000000e+00
8.500000e-01
1.000000e+00
8.500000e-01
1.000000e+00
8.500000e-01
1.000000e+00
8.500000e-01
1.000000e+00
8.500000e-01
1.000000e+00
8.500000e-01
1.000000e+00
8.500000e-01
1.000000e+00
8.500000e-01
1.000000e+00
8.500000e-01
1.000000e+00
8.500000e-01
1.000000e+00
8.500000e-01
1.000000e+00
8.500000e-01
1.000000e+00
8.500000e-01
1.000000e+00
8.500000e-01
1.000000e+00
8.500000e-01
1.000000e+00
8.500000e-01
1.000000e+00
8.500000e-01
1.000000e+00
8.500000e-01
1.000000e+00
8.500000e-01
1.000000e+00
8.500000e-01
1.000000e+00
8.500000e-01
1.000000e+00
8.500000e-01
1.000000e+00
8.500000e-01
1.000000e+00
8.500000e-01
1.000000e+00
8.500000e-01
1.000000e+00
8.500000e-01
1.000000e+00
8.500000e-01
1.000000e+00
8.500000e-01
1.000000e+00
8.500000e-01
1.000000e+00
8.500000e-01
1.000000e+00
8.500000e-01
1.000000e+00
8.500000e-01
1.000000e+00
8.500000e-01
1.000000e+00
8.500000e-01
1.000000e+00
8.500000e-01
1.000000e+00
8.500000e-01
1.000000e+00
8.500000e-01
1.000000e+00
8.500000e-01
1.000000e+00
8.500000e-01
1.000000e+00
8.500000e-01
1.000000e+00
8.500000e-01
1.000000e+00
8.500000e-01
1.000000e+00
8.500000e-01
1.000000e+00
8.500000e-01
1.000000e+00
8.500000e-01
1.000000e+00
8.500000e-01
1.000000e+00
8.500000e-01
1.000000e+00
8.500000e-01
1.000000e+00
8.500000e-01
1.000000e+00
8.500000e-01
1.000000e+00
8.500000e-01
1.000000e+00
8.500000e-01
1.000000e+00
8.500000e-01
1.000000e+00
8.500000e-01
1.000000e+00
8.500000e-01
1.000000e+00
</DataArray>
<DataArray type="Float32" Name="V5" format="ascii">
0.000000e+00
0.000000e+00
5.235988e-02
5.235988e-02
5.235988e-02
5.235988e-02
1.047198e-01
1.047198e-01
1.047198e-01
1.047198e-01
1.570796e-01
1.570796e-01
1.570796e-01
1.570796e-01
2.094395e-01
2.094395e-01
2.094395e-01
2.094395e-01
2.617994e-01
2.617994e-01
2.617994e-01
2.617994e-01
3.141593e-01
3.141593e-01
3.141593e-01
3.141593e-01
3.665191e-01
3.665191e-01
3.665191e-01
3.665191e-01
4.188790e-01
4.188790e-01
4.188790e-01
4.188790e-01
4.712389e-01
4.712389e-01
4.712389e-01
4.712389e-01
5.235988e-01
5.235988e-01
5.235988e-01
5.235988e-01
5.759587e-01
5.759587e-01
5.759587e-01
5.759587e-01
6.283185e-01
6.283185e-01
6.283185e-01
6.283185e-01
6.806784e-01
6.806784e-01
6.806784e-01
6.806784e-01
7.330383e-01
7.330383e-01
7.330383e-01
7.330383e-01
7.853982e-01
7.853982e-01
7.853982e-01
7.853982e-01
8.377580e-01
8.377580e-01
8.377580e-01
8.377580e-01
8.901179e-01
8.901179e-01
8.901179e-01
8.901179e-01
9.424778e-01
9.424778e-01
9.424778e-01
9.424778e-01
9.948377e-01
9.948377e-01
9.948377e-01
9.948377e-01
1.047198e+00
1.047198e+00
1.047198e+00
1.047198e+00
1.099557e+00
1.099557e+00
1.099557e+00
1.099557e+00
1.151917e+00
1.151917e+00
1.151917e+00
1.151917e+00
1.204277e+00
1.204277e+00
1.204277e+00
1.204277e+00
1.256637e+00
1.256637e+00
1.256637e+00
1.256637e+00
1.308997e+00
1.308997e+00
1.308997e+00
1.308997e+00
1.361357e+00
1.361357e+00
1.361357e+00
1.361357e+00
1.413717e+00
1.413717e+00
1.413717e+00
1.413717e+00
1.466077e+00
1.466077e+00
1.466077e+00
1.466077e+00
1.518436e+00
1.518436e+00
1.518436e+00
1.518436e+00
1.570796e+00
1.570796e+00
</DataArray>
</PointData>
</Piece></UnstructuredGrid>
</VTKFile>
