<?xml version="1.0"?>
<VTKFile type="UnstructuredGrid" version="0.1" byte_order="LittleEndian" compressor="vtkZLibDataCompressor">
<UnstructuredGrid>
<Piece NumberOfPoints="120" NumberOfCells="30">
<Points>
<DataArray type="Float32" NumberOfComponents="3" format="ascii">
0.000000e+00 3.670677e-01 0.000000e+00
0.000000e+00 4.000000e-01 0.000000e+00
1.035561e-01 3.671148e-01 0.000000e+00
1.035495e-01 4.000000e-01 0.000000e+00
1.035561e-01 3.671148e-01 0.000000e+00
1.035495e-01 4.000000e-01 0.000000e+00
2.071039e-01 3.671544e-01 0.000000e+00
2.070913e-01 4.000000e-01 0.000000e+00
2.071039e-01 3.671544e-01 0.000000e+00
2.070913e-01 4.000000e-01 0.000000e+00
3.106294e-01 3.672182e-01 0.000000e+00
3.106102e-01 4.000000e-01 0.000000e+00
3.106294e-01 3.672182e-01 0.000000e+00
3.106102e-01 4.000000e-01 0.000000e+00
4.141213e-01 3.673072e-01 0.000000e+00
4.140952e-01 4.000000e-01 0.000000e+00
4.141213e-01 3.673072e-01 0.000000e+00
4.140952e-01 4.000000e-01 0.000000e+00
5.175680e-01 3.674214e-01 0.000000e+00
5.175345e-01 4.000000e-01 0.000000e+00
5.175680e-01 3.674214e-01 0.000000e+00
5.175345e-01 4.000000e-01 0.000000e+00
6.209575e-01 3.675604e-01 0.000000e+00
6.209160e-01 4.000000e-01 0.000000e+00
6.209575e-01 3.675604e-01 0.000000e+00
6.209160e-01 4.000000e-01 0.000000e+00
7.242771e-01 3.677238e-01 0.000000e+00
7.242267e-01 4.000000e-01 0.000000e+00
7.242771e-01 3.677238e-01 0.000000e+00
7.242267e-01 4.000000e-01 0.000000e+00
8.275132e-01 3.679114e-01 0.000000e+00
8.274531e-01 4.000000e-01 0.000000e+00
8.275132e-01 3.679114e-01 0.000000e+00
8.274531e-01 4.000000e-01 0.000000e+00
9.306517e-01 3.681225e-01 0.000000e+00
9.305808e-01 4.000000e-01 0.000000e+00
9.306517e-01 3.681225e-01 0.000000e+00
9.305808e-01 4.000000e-01 0.000000e+00
1.033677e+00 3.683568e-01 0.000000e+00
1.033594e+00 4.000000e-01 0.000000e+00
1.033677e+00 3.683568e-01 0.000000e+00
1.033594e+00 4.000000e-01 0.000000e+00
1.136573e+00 3.686136e-01 0.000000e+00
1.136477e+00 4.000000e-01 0.000000e+00
1.136573e+00 3.686136e-01 0.000000e+00
1.136477e+00 4.000000e-01 0.000000e+00
1.239322e+00 3.688922e-01 0.000000e+00
1.239212e+00 4.000000e-01 0.000000e+00
1.239322e+00 3.688922e-01 0.000000e+00
1.239212e+00 4.000000e-01 0.000000e+00
1.341905e+00 3.691919e-01 0.000000e+00
1.341779e+00 4.000000e-01 0.000000e+00
1.341905e+00 3.691919e-01 0.000000e+00
1.341779e+00 4.000000e-01 0.000000e+00
1.444299e+00 3.695119e-01 0.000000e+00
1.444160e+00 4.000000e-01 0.000000e+00
1.444299e+00 3.695119e-01 0.000000e+00
1.444160e+00 4.000000e-01 0.000000e+00
1.546481e+00 3.698508e-01 0.000000e+00
1.546333e+00 4.000000e-01 0.000000e+00
1.546481e+00 3.698508e-01 0.000000e+00
1.546333e+00 4.000000e-01 0.000000e+00
1.648425e+00 3.702070e-01 0.000000e+00
1.648277e+00 4.000000e-01 0.000000e+00
1.648425e+00 3.702070e-01 0.000000e+00
1.648277e+00 4.000000e-01 0.000000e+00
1.750099e+00 3.705777e-01 0.000000e+00
1.749972e+00 4.000000e-01 0.000000e+00
1.750099e+00 3.705777e-01 0.000000e+00
1.749972e+00 4.000000e-01 0.000000e+00
1.851465e+00 3.709589e-01 0.000000e+00
1.851403e+00 4.000000e-01 0.000000e+00
1.851465e+00 3.709589e-01 0.000000e+00
1.851403e+00 4.000000e-01 0.000000e+00
1.952476e+00 3.713446e-01 0.000000e+00
1.952562e+00 4.000000e-01 0.000000e+00
1.952476e+00 3.713446e-01 0.000000e+00
1.952562e+00 4.000000e-01 0.000000e+00
2.053070e+00 3.717290e-01 0.000000e+00
2.053468e+00 4.000000e-01 0.000000e+00
2.053070e+00 3.717290e-01 0.000000e+00
2.053468e+00 4.000000e-01 0.000000e+00
2.153158e+00 3.721140e-01 0.000000e+00
2.154190e+00 4.000000e-01 0.000000e+00
2.153158e+00 3.721140e-01 0.000000e+00
2.154190e+00 4.000000e-01 0.000000e+00
2.252599e+00 3.725322e-01 0.000000e+00
2.254895e+00 4.000000e-01 0.000000e+00
2.252599e+00 3.725322e-01 0.000000e+00
2.254895e+00 4.000000e-01 0.000000e+00
2.351157e+00 3.730763e-01 0.000000e+00
2.355869e+00 4.000000e-01 0.000000e+00
2.351157e+00 3.730763e-01 0.000000e+00
2.355869e+00 4.000000e-01 0.000000e+00
2.449215e+00 3.739764e-01 0.000000e+00
2.457933e+00 4.000000e-01 0.000000e+00
2.449215e+00 3.739764e-01 0.000000e+00
2.457933e+00 4.000000e-01 0.000000e+00
2.547157e+00 3.607138e-01 0.000000e+00
2.558283e+00 3.839604e-01 0.000000e+00
2.547157e+00 3.607138e-01 0.000000e+00
2.558283e+00 3.839604e-01 0.000000e+00
2.630418e+00 3.181527e-01 0.000000e+00
2.644871e+00 3.387315e-01 0.000000e+00
2.630418e+00 3.181527e-01 0.000000e+00
2.644871e+00 3.387315e-01 0.000000e+00
2.696849e+00 2.552298e-01 0.000000e+00
2.715443e+00 2.719344e-01 0.000000e+00
2.696849e+00 2.552298e-01 0.000000e+00
2.715443e+00 2.719344e-01 0.000000e+00
2.744968e+00 1.780547e-01 0.000000e+00
2.766996e+00 1.897430e-01 0.000000e+00
2.744968e+00 1.780547e-01 0.000000e+00
2.766996e+00 1.897430e-01 0.000000e+00
2.774217e+00 9.144976e-02 0.000000e+00
2.798235e+00 9.743379e-02 0.000000e+00
2.774217e+00 9.144976e-02 0.000000e+00
2.798235e+00 9.743379e-02 0.000000e+00
2.784124e+00 1.363271e-11 0.000000e+00
2.808751e+00 1.375330e-11 0.000000e+00
</DataArray>
</Points>
<Cells>
<DataArray type="Int32" Name="connectivity" format="ascii">
0 1 3 2
4 5 7 6
8 9 11 10
12 13 15 14
16 17 19 18
20 21 23 22
24 25 27 26
28 29 31 30
32 33 35 34
36 37 39 38
40 41 43 42
44 45 47 46
48 49 51 50
52 53 55 54
56 57 59 58
60 61 63 62
64 65 67 66
68 69 71 70
72 73 75 74
76 77 79 78
80 81 83 82
84 85 87 86
88 89 91 90
92 93 95 94
96 97 99 98
100 101 103 102
104 105 107 106
108 109 111 110
112 113 115 114
116 117 119 118
</DataArray>
<DataArray type="Int32" Name="offsets" format="ascii">
4
8
12
16
20
24
28
32
36
40
44
48
52
56
60
64
68
72
76
80
84
88
92
96
100
104
108
112
116
120
</DataArray>
<DataArray type="UInt8" Name="types" format="ascii">
9
9
9
9
9
9
9
9
9
9
9
9
9
9
9
9
9
9
9
9
9
9
9
9
9
9
9
9
9
9
</DataArray>
</Cells>
<PointData>
<DataArray type="Float32" Name="V1" format="ascii">
1.248263e+03
1.794531e+02
1.249536e+03
1.807262e+02
1.251159e+03
1.795222e+02
1.254668e+03
1.830310e+02
1.258018e+03
1.807233e+02
1.263859e+03
1.865638e+02
1.268982e+03
1.831168e+02
1.277209e+03
1.913429e+02
1.284163e+03
1.867234e+02
1.294872e+03
1.974323e+02
1.303732e+03
1.915850e+02
1.317052e+03
2.049057e+02
1.327915e+03
1.977608e+02
1.344010e+03
2.138551e+02
1.357000e+03
2.053274e+02
1.376067e+03
2.243943e+02
1.391338e+03
2.143804e+02
1.413619e+03
2.366619e+02
1.431355e+03
2.250373e+02
1.457143e+03
2.508253e+02
1.477563e+03
2.374415e+02
1.507209e+03
2.670869e+02
1.530573e+03
2.517666e+02
1.564498e+03
2.856912e+02
1.591107e+03
2.682232e+02
1.629819e+03
3.069351e+02
1.660018e+03
2.870684e+02
1.704132e+03
3.311830e+02
1.738303e+03
3.086183e+02
1.788573e+03
3.588886e+02
1.827124e+03
3.332696e+02
1.884483e+03
3.906286e+02
1.927811e+03
3.615326e+02
1.993434e+03
4.271558e+02
2.041851e+03
3.940914e+02
2.117243e+03
4.694837e+02
2.170841e+03
4.319201e+02
2.257945e+03
5.190233e+02
2.316364e+03
4.765335e+02
2.417632e+03
5.778008e+02
2.479694e+03
5.305769e+02
2.597947e+03
6.488300e+02
2.661062e+03
5.992380e+02
2.798746e+03
7.369229e+02
2.857410e+03
6.932080e+02
3.015466e+03
8.512646e+02
3.053171e+03
8.316262e+02
3.240182e+03
1.018637e+03
3.264642e+03
1.046798e+03
3.451968e+03
1.234124e+03
3.490341e+03
1.246575e+03
3.682409e+03
1.438643e+03
3.754029e+03
1.410564e+03
3.939934e+03
1.596469e+03
4.028560e+03
1.541346e+03
4.175389e+03
1.688176e+03
4.267499e+03
1.628041e+03
4.357776e+03
1.718318e+03
4.416323e+03
1.680824e+03
4.447123e+03
1.711625e+03
</DataArray>
<DataArray type="Float32" Name="V2" format="ascii">
3.670677e-01
4.000000e-01
3.720314e-01
4.048712e-01
3.720314e-01
4.048712e-01
3.867914e-01
4.194557e-01
3.867914e-01
4.194557e-01
4.112903e-01
4.436655e-01
4.112903e-01
4.436655e-01
4.453813e-01
4.773543e-01
4.453813e-01
4.773543e-01
4.888582e-01
5.203181e-01
4.888582e-01
5.203181e-01
5.414571e-01
5.722962e-01
5.414571e-01
5.722962e-01
6.028575e-01
6.329718e-01
6.028575e-01
6.329718e-01
6.726837e-01
7.019737e-01
6.726837e-01
7.019737e-01
7.505066e-01
7.788774e-01
7.505066e-01
7.788774e-01
8.358450e-01
8.632073e-01
8.358450e-01
8.632073e-01
9.281676e-01
9.544381e-01
9.281676e-01
9.544381e-01
1.026895e+00
1.051997e+00
1.026895e+00
1.051997e+00
1.131404e+00
1.155268e+00
1.131404e+00
1.155268e+00
1.241025e+00
1.263590e+00
1.241025e+00
1.263590e+00
1.355051e+00
1.376265e+00
1.355051e+00
1.376265e+00
1.472735e+00
1.492561e+00
1.472735e+00
1.492561e+00
1.593294e+00
1.611712e+00
1.593294e+00
1.611712e+00
1.715911e+00
1.732930e+00
1.715911e+00
1.732930e+00
1.839733e+00
1.855412e+00
1.839733e+00
1.855412e+00
1.963875e+00
1.978355e+00
1.963875e+00
1.978355e+00
2.087414e+00
2.100994e+00
2.087414e+00
2.100994e+00
2.209374e+00
2.222644e+00
2.209374e+00
2.222644e+00
2.328693e+00
2.342740e+00
2.328693e+00
2.342740e+00
2.444907e+00
2.461240e+00
2.444907e+00
2.461240e+00
2.553725e+00
2.570488e+00
2.553725e+00
2.570488e+00
2.639085e+00
2.657500e+00
2.639085e+00
2.657500e+00
2.703573e+00
2.724551e+00
2.703573e+00
2.724551e+00
2.748543e+00
2.771672e+00
2.748543e+00
2.771672e+00
2.775201e+00
2.799499e+00
2.775201e+00
2.799499e+00
2.784124e+00
2.808751e+00
</DataArray>
<DataArray type="Float32" Name="V3" format="ascii">
0.000000e+00
0.000000e+00
8.420089e-02
8.247323e-02
8.420089e-02
8.247323e-02
1.675913e-01
1.641454e-01
1.675913e-01
1.641454e-01
2.493595e-01
2.442122e-01
2.493595e-01
2.442122e-01
3.287043e-01
3.218815e-01
3.287043e-01
3.218815e-01
4.048367e-01
3.963723e-01
4.048367e-01
3.963723e-01
4.769833e-01
4.669194e-01
4.769833e-01
4.669194e-01
5.443905e-01
5.327767e-01
5.443905e-01
5.327767e-01
6.063279e-01
5.932214e-01
6.063279e-01
5.932214e-01
6.620926e-01
6.475573e-01
6.620926e-01
6.475573e-01
7.110124e-01
6.951189e-01
7.110124e-01
6.951189e-01
7.524493e-01
7.352743e-01
7.524493e-01
7.352743e-01
7.858034e-01
7.674293e-01
7.858034e-01
7.674293e-01
8.105157e-01
7.910303e-01
8.105157e-01
7.910303e-01
8.260715e-01
8.055678e-01
8.260715e-01
8.055678e-01
8.320034e-01
8.105798e-01
8.320034e-01
8.105798e-01
8.278943e-01
8.056547e-01
8.278943e-01
8.056547e-01
8.133800e-01
7.904349e-01
8.133800e-01
7.904349e-01
7.881517e-01
7.646204e-01
7.881517e-01
7.646204e-01
7.519588e-01
7.279732e-01
7.519588e-01
7.279732e-01
7.046081e-01
6.803236e-01
7.046081e-01
6.803236e-01
6.459573e-01
6.215794e-01
6.459573e-01
6.215794e-01
5.758896e-01
5.517304e-01
5.758896e-01
5.517304e-01
4.942827e-01
4.708357e-01
4.942827e-01
4.708357e-01
4.011763e-01
3.791204e-01
4.011763e-01
3.791204e-01
3.108301e-01
2.912551e-01
3.108301e-01
2.912551e-01
2.356945e-01
2.185701e-01
2.356945e-01
2.185701e-01
1.697926e-01
1.562024e-01
1.697926e-01
1.562024e-01
1.098480e-01
1.005263e-01
1.098480e-01
1.005263e-01
5.386688e-02
4.914803e-02
5.386688e-02
4.914803e-02
0.000000e+00
0.000000e+00
</DataArray>
<DataArray type="Float32" Name="V4" format="ascii">
8.500000e-01
1.000000e+00
8.500000e-01
1.000000e+00
8.500000e-01
1.000000e+00
8.500000e-01
1.000000e+00
8.500000e-01
1.000000e+00
8.500000e-01
1.000000e+00
8.500000e-01
1.000000e+00
8.500000e-01
1.000000e+00
8.500000e-01
1.000000e+00
8.500000e-01
1.000000e+00
8.500000e-01
1.000000e+00
8.500000e-01
1.000000e+00
8.500000e-01
1.000000e+00
8.500000e-01
1.000000e+00
8.500000e-01
1.000000e+00
8.500000e-01
1.000000e+00
8.500000e-01
1.000000e+00
8.500000e-01
1.000000e+00
8.500000e-01
1.000000e+00
8.500000e-01
1.000000e+00
8.500000e-01
1.000000e+00
8.500000e-01
1.000000e+00
8.500000e-01
1.000000e+00
8.500000e-01
1.000000e+00
8.500000e-01
1.000000e+00
8.500000e-01
1.000000e+00
8.500000e-01
1.000000e+00
8.500000e-01
1.000000e+00
8.500000e-01
1.000000e+00
8.500000e-01
1.000000e+00
8.500000e-01
1.000000e+00
8.500000e-01
1.000000e+00
8.500000e-01
1.000000e+00
8.500000e-01
1.000000e+00
8.500000e-01
1.000000e+00
8.500000e-01
1.000000e+00
8.500000e-01
1.000000e+00
8.500000e-01
1.000000e+00
8.500000e-01
1.000000e+00
8.500000e-01
1.000000e+00
8.500000e-01
1.000000e+00
8.500000e-01
1.000000e+00
8.500000e-01
1.000000e+00
8.500000e-01
1.000000e+00
8.500000e-01
1.000000e+00
8.500000e-01
1.000000e+00
8.500000e-01
1.000000e+00
8.500000e-01
1.000000e+00
8.500000e-01
1.000000e+00
8.500000e-01
1.000000e+00
8.500000e-01
1.000000e+00
8.500000e-01
1.000000e+00
8.500000e-01
1.000000e+00
8.500000e-01
1.000000e+00
8.500000e-01
1.000000e+00
8.500000e-01
1.000000e+00
8.500000e-01
1.000000e+00
8.500000e-01
1.000000e+00
8.500000e-01
1.000000e+00
8.500000e-01
1.000000e+00
</DataArray>
<DataArray type="Float32" Name="V5" format="ascii">
0.000000e+00
0.000000e+00
5.235988e-02
5.235988e-02
5.235988e-02
5.235988e-02
1.047198e-01
1.047198e-01
1.047198e-01
1.047198e-01
1.570796e-01
1.570796e-01
1.570796e-01
1.570796e-01
2.094395e-01
2.094395e-01
2.094395e-01
2.094395e-01
2.617994e-01
2.617994e-01
2.617994e-01
2.617994e-01
3.141593e-01
3.141593e-01
3.141593e-01
3.141593e-01
3.665191e-01
3.665191e-01
3.665191e-01
3.665191e-01
4.188790e-01
4.188790e-01
4.188790e-01
4.188790e-01
4.712389e-01
4.712389e-01
4.712389e-01
4.712389e-01
5.235988e-01
5.235988e-01
5.235988e-01
5.235988e-01
5.759587e-01
5.759587e-01
5.759587e-01
5.759587e-01
6.283185e-01
6.283185e-01
6.283185e-01
6.283185e-01
6.806784e-01
6.806784e-01
6.806784e-01
6.806784e-01
7.330383e-01
7.330383e-01
7.330383e-01
7.330383e-01
7.853982e-01
7.853982e-01
7.853982e-01
7.853982e-01
8.377580e-01
8.377580e-01
8.377580e-01
8.377580e-01
8.901179e-01
8.901179e-01
8.901179e-01
8.901179e-01
9.424778e-01
9.424778e-01
9.424778e-01
9.424778e-01
9.948377e-01
9.948377e-01
9.948377e-01
9.948377e-01
1.047198e+00
1.047198e+00
1.047198e+00
1.047198e+00
1.099557e+00
1.099557e+00
1.099557e+00
1.099557e+00
1.151917e+00
1.151917e+00
1.151917e+00
1.151917e+00
1.204277e+00
1.204277e+00
1.204277e+00
1.204277e+00
1.256637e+00
1.256637e+00
1.256637e+00
1.256637e+00
1.308997e+00
1.308997e+00
1.308997e+00
1.308997e+00
1.361357e+00
1.361357e+00
1.361357e+00
1.361357e+00
1.413717e+00
1.413717e+00
1.413717e+00
1.413717e+00
1.466077e+00
1.466077e+00
1.466077e+00
1.466077e+00
1.518436e+00
1.518436e+00
1.518436e+00
1.518436e+00
1.570796e+00
1.570796e+00
</DataArray>
</PointData>
</Piece></UnstructuredGrid>
</VTKFile>
