<?xml version="1.0"?>
<VTKFile type="UnstructuredGrid" version="0.1" byte_order="LittleEndian" compressor="vtkZLibDataCompressor">
<UnstructuredGrid>
<Piece NumberOfPoints="120" NumberOfCells="30">
<Points>
<DataArray type="Float32" NumberOfComponents="3" format="ascii">
0.000000e+00 9.040921e-01 0.000000e+00
0.000000e+00 1.040000e+00 0.000000e+00
4.731652e-02 9.028530e-01 0.000000e+00
5.442939e-02 1.038575e+00 0.000000e+00
4.731652e-02 9.028530e-01 0.000000e+00
5.442939e-02 1.038575e+00 0.000000e+00
9.450335e-02 8.991394e-01 0.000000e+00
1.087096e-01 1.034303e+00 0.000000e+00
9.450335e-02 8.991394e-01 0.000000e+00
1.087096e-01 1.034303e+00 0.000000e+00
1.414312e-01 8.929612e-01 0.000000e+00
1.626918e-01 1.027196e+00 0.000000e+00
1.414312e-01 8.929612e-01 0.000000e+00
1.626918e-01 1.027196e+00 0.000000e+00
1.879713e-01 8.843355e-01 0.000000e+00
2.162281e-01 1.017273e+00 0.000000e+00
1.879713e-01 8.843355e-01 0.000000e+00
2.162281e-01 1.017273e+00 0.000000e+00
2.339962e-01 8.732859e-01 0.000000e+00
2.691718e-01 1.004563e+00 0.000000e+00
2.339962e-01 8.732859e-01 0.000000e+00
2.691718e-01 1.004563e+00 0.000000e+00
2.793798e-01 8.598427e-01 0.000000e+00
3.213777e-01 9.890987e-01 0.000000e+00
2.793798e-01 8.598427e-01 0.000000e+00
3.213777e-01 9.890987e-01 0.000000e+00
3.239976e-01 8.440427e-01 0.000000e+00
3.727027e-01 9.709236e-01 0.000000e+00
3.239976e-01 8.440427e-01 0.000000e+00
3.727027e-01 9.709236e-01 0.000000e+00
3.677274e-01 8.259292e-01 0.000000e+00
4.230061e-01 9.500872e-01 0.000000e+00
3.677274e-01 8.259292e-01 0.000000e+00
4.230061e-01 9.500872e-01 0.000000e+00
4.104492e-01 8.055519e-01 0.000000e+00
4.721501e-01 9.266467e-01 0.000000e+00
4.104492e-01 8.055519e-01 0.000000e+00
4.721501e-01 9.266467e-01 0.000000e+00
4.520460e-01 7.829667e-01 0.000000e+00
5.200000e-01 9.006664e-01 0.000000e+00
4.520460e-01 7.829667e-01 0.000000e+00
5.200000e-01 9.006664e-01 0.000000e+00
4.924038e-01 7.582354e-01 0.000000e+00
5.664246e-01 8.722174e-01 0.000000e+00
4.924038e-01 7.582354e-01 0.000000e+00
5.664246e-01 8.722174e-01 0.000000e+00
5.314120e-01 7.314258e-01 0.000000e+00
6.112966e-01 8.413776e-01 0.000000e+00
5.314120e-01 7.314258e-01 0.000000e+00
6.112966e-01 8.413776e-01 0.000000e+00
5.689636e-01 7.026115e-01 0.000000e+00
6.544932e-01 8.082318e-01 0.000000e+00
5.689636e-01 7.026115e-01 0.000000e+00
6.544932e-01 8.082318e-01 0.000000e+00
6.049557e-01 6.718713e-01 0.000000e+00
6.958958e-01 7.728706e-01 0.000000e+00
6.049557e-01 6.718713e-01 0.000000e+00
6.958958e-01 7.728706e-01 0.000000e+00
6.392896e-01 6.392896e-01 0.000000e+00
7.353910e-01 7.353910e-01 0.000000e+00
6.392896e-01 6.392896e-01 0.000000e+00
7.353910e-01 7.353910e-01 0.000000e+00
6.718713e-01 6.049557e-01 0.000000e+00
7.728706e-01 6.958958e-01 0.000000e+00
6.718713e-01 6.049557e-01 0.000000e+00
7.728706e-01 6.958958e-01 0.000000e+00
7.026115e-01 5.689636e-01 0.000000e+00
8.082318e-01 6.544932e-01 0.000000e+00
7.026115e-01 5.689636e-01 0.000000e+00
8.082318e-01 6.544932e-01 0.000000e+00
7.314258e-01 5.314120e-01 0.000000e+00
8.413776e-01 6.112966e-01 0.000000e+00
7.314258e-01 5.314120e-01 0.000000e+00
8.413776e-01 6.112966e-01 0.000000e+00
7.582354e-01 4.924038e-01 0.000000e+00
8.722174e-01 5.664246e-01 0.000000e+00
7.582354e-01 4.924038e-01 0.000000e+00
8.722174e-01 5.664246e-01 0.000000e+00
7.829667e-01 4.520460e-01 0.000000e+00
9.006664e-01 5.200000e-01 0.000000e+00
7.829667e-01 4.520460e-01 0.000000e+00
9.006664e-01 5.200000e-01 0.000000e+00
8.055519e-01 4.104492e-01 0.000000e+00
9.266467e-01 4.721501e-01 0.000000e+00
8.055519e-01 4.104492e-01 0.000000e+00
9.266467e-01 4.721501e-01 0.000000e+00
8.259292e-01 3.677274e-01 0.000000e+00
9.500872e-01 4.230061e-01 0.000000e+00
8.259292e-01 3.677274e-01 0.000000e+00
9.500872e-01 4.230061e-01 0.000000e+00
8.440427e-01 3.239976e-01 0.000000e+00
9.709236e-01 3.727027e-01 0.000000e+00
8.440427e-01 3.239976e-01 0.000000e+00
9.709236e-01 3.727027e-01 0.000000e+00
8.598427e-01 2.793798e-01 0.000000e+00
9.890987e-01 3.213777e-01 0.000000e+00
8.598427e-01 2.793798e-01 0.000000e+00
9.890987e-01 3.213777e-01 0.000000e+00
8.732859e-01 2.339962e-01 0.000000e+00
1.004563e+00 2.691718e-01 0.000000e+00
8.732859e-01 2.339962e-01 0.000000e+00
1.004563e+00 2.691718e-01 0.000000e+00
8.843355e-01 1.879713e-01 0.000000e+00
1.017273e+00 2.162281e-01 0.000000e+00
8.843355e-01 1.879713e-01 0.000000e+00
1.017273e+00 2.162281e-01 0.000000e+00
8.929612e-01 1.414312e-01 0.000000e+00
1.027196e+00 1.626918e-01 0.000000e+00
8.929612e-01 1.414312e-01 0.000000e+00
1.027196e+00 1.626918e-01 0.000000e+00
8.991394e-01 9.450335e-02 0.000000e+00
1.034303e+00 1.087096e-01 0.000000e+00
8.991394e-01 9.450335e-02 0.000000e+00
1.034303e+00 1.087096e-01 0.000000e+00
9.028530e-01 4.731652e-02 0.000000e+00
1.038575e+00 5.442939e-02 0.000000e+00
9.028530e-01 4.731652e-02 0.000000e+00
1.038575e+00 5.442939e-02 0.000000e+00
9.040921e-01 4.426970e-12 0.000000e+00
1.040000e+00 5.092450e-12 0.000000e+00
</DataArray>
</Points>
<Cells>
<DataArray type="Int32" Name="connectivity" format="ascii">
0 1 3 2
4 5 7 6
8 9 11 10
12 13 15 14
16 17 19 18
20 21 23 22
24 25 27 26
28 29 31 30
32 33 35 34
36 37 39 38
40 41 43 42
44 45 47 46
48 49 51 50
52 53 55 54
56 57 59 58
60 61 63 62
64 65 67 66
68 69 71 70
72 73 75 74
76 77 79 78
80 81 83 82
84 85 87 86
88 89 91 90
92 93 95 94
96 97 99 98
100 101 103 102
104 105 107 106
108 109 111 110
112 113 115 114
116 117 119 118
</DataArray>
<DataArray type="Int32" Name="offsets" format="ascii">
4
8
12
16
20
24
28
32
36
40
44
48
52
56
60
64
68
72
76
80
84
88
92
96
100
104
108
112
116
120
</DataArray>
<DataArray type="UInt8" Name="types" format="ascii">
9
9
9
9
9
9
9
9
9
9
9
9
9
9
9
9
9
9
9
9
9
9
9
9
9
9
9
9
9
9
</DataArray>
</Cells>
<PointData>
<DataArray type="Float32" Name="V1" format="ascii">
1.902944e+00
1.829112e+00
1.902944e+00
1.829112e+00
1.902944e+00
1.829112e+00
1.902944e+00
1.829112e+00
1.902944e+00
1.829112e+00
1.902944e+00
1.829112e+00
1.902944e+00
1.829112e+00
1.902944e+00
1.829112e+00
1.902944e+00
1.829112e+00
1.902944e+00
1.829112e+00
1.902944e+00
1.829112e+00
1.902944e+00
1.829112e+00
1.902944e+00
1.829112e+00
1.902944e+00
1.829112e+00
1.902944e+00
1.829112e+00
1.902944e+00
1.829112e+00
1.902944e+00
1.829112e+00
1.902944e+00
1.829112e+00
1.902944e+00
1.829112e+00
1.902944e+00
1.829112e+00
1.902944e+00
1.829112e+00
1.902944e+00
1.829112e+00
1.902944e+00
1.829112e+00
1.902944e+00
1.829112e+00
1.902944e+00
1.829112e+00
1.902944e+00
1.829112e+00
1.902944e+00
1.829112e+00
1.902944e+00
1.829112e+00
1.902944e+00
1.829112e+00
1.902944e+00
1.829112e+00
1.902944e+00
1.829112e+00
1.902944e+00
1.829112e+00
1.902944e+00
1.829112e+00
1.902944e+00
1.829112e+00
1.902944e+00
1.829112e+00
1.902944e+00
1.829112e+00
1.902944e+00
1.829112e+00
1.902944e+00
1.829112e+00
1.902944e+00
1.829112e+00
1.902944e+00
1.829112e+00
1.902944e+00
1.829112e+00
1.902944e+00
1.829112e+00
1.902944e+00
1.829112e+00
1.902944e+00
1.829112e+00
1.902944e+00
1.829112e+00
1.902944e+00
1.829112e+00
1.902944e+00
1.829112e+00
1.902944e+00
1.829112e+00
1.902944e+00
1.829112e+00
1.902944e+00
1.829112e+00
1.902944e+00
1.829112e+00
1.902944e+00
1.829112e+00
1.902944e+00
1.829112e+00
1.902944e+00
1.829112e+00
1.902944e+00
1.829112e+00
1.902944e+00
1.829112e+00
1.902944e+00
1.829112e+00
1.902944e+00
1.829112e+00
1.902944e+00
1.829112e+00
1.902944e+00
1.829112e+00
</DataArray>
<DataArray type="Float32" Name="V2" format="ascii">
9.040921e-01
1.040000e+00
9.040921e-01
1.040000e+00
9.040921e-01
1.040000e+00
9.040921e-01
1.040000e+00
9.040921e-01
1.040000e+00
9.040921e-01
1.040000e+00
9.040921e-01
1.040000e+00
9.040921e-01
1.040000e+00
9.040921e-01
1.040000e+00
9.040921e-01
1.040000e+00
9.040921e-01
1.040000e+00
9.040921e-01
1.040000e+00
9.040921e-01
1.040000e+00
9.040921e-01
1.040000e+00
9.040921e-01
1.040000e+00
9.040921e-01
1.040000e+00
9.040921e-01
1.040000e+00
9.040921e-01
1.040000e+00
9.040921e-01
1.040000e+00
9.040921e-01
1.040000e+00
9.040921e-01
1.040000e+00
9.040921e-01
1.040000e+00
9.040921e-01
1.040000e+00
9.040921e-01
1.040000e+00
9.040921e-01
1.040000e+00
9.040921e-01
1.040000e+00
9.040921e-01
1.040000e+00
9.040921e-01
1.040000e+00
9.040921e-01
1.040000e+00
9.040921e-01
1.040000e+00
9.040921e-01
1.040000e+00
9.040921e-01
1.040000e+00
9.040921e-01
1.040000e+00
9.040921e-01
1.040000e+00
9.040921e-01
1.040000e+00
9.040921e-01
1.040000e+00
9.040921e-01
1.040000e+00
9.040921e-01
1.040000e+00
9.040921e-01
1.040000e+00
9.040921e-01
1.040000e+00
9.040921e-01
1.040000e+00
9.040921e-01
1.040000e+00
9.040921e-01
1.040000e+00
9.040921e-01
1.040000e+00
9.040921e-01
1.040000e+00
9.040921e-01
1.040000e+00
9.040921e-01
1.040000e+00
9.040921e-01
1.040000e+00
9.040921e-01
1.040000e+00
9.040921e-01
1.040000e+00
9.040921e-01
1.040000e+00
9.040921e-01
1.040000e+00
9.040921e-01
1.040000e+00
9.040921e-01
1.040000e+00
9.040921e-01
1.040000e+00
9.040921e-01
1.040000e+00
9.040921e-01
1.040000e+00
9.040921e-01
1.040000e+00
9.040921e-01
1.040000e+00
9.040921e-01
1.040000e+00
</DataArray>
<DataArray type="Float32" Name="V3" format="ascii">
0.000000e+00
0.000000e+00
3.737600e-13
-1.751380e-12
3.737600e-13
-1.751380e-12
-1.276800e-13
-1.938900e-12
-1.276800e-13
-1.938900e-12
3.323000e-14
-1.710240e-12
3.323000e-14
-1.710240e-12
1.786100e-13
-1.556990e-12
1.786100e-13
-1.556990e-12
2.719400e-13
-1.473210e-12
2.719400e-13
-1.473210e-12
3.348700e-13
-1.428290e-12
3.348700e-13
-1.428290e-12
3.800900e-13
-1.403970e-12
3.800900e-13
-1.403970e-12
4.147000e-13
-1.393210e-12
4.147000e-13
-1.393210e-12
4.414400e-13
-1.393590e-12
4.414400e-13
-1.393590e-12
4.608800e-13
-1.405230e-12
4.608800e-13
-1.405230e-12
4.766900e-13
-1.424600e-12
4.766900e-13
-1.424600e-12
4.876600e-13
-1.454540e-12
4.876600e-13
-1.454540e-12
4.959200e-13
-1.493900e-12
4.959200e-13
-1.493900e-12
4.989200e-13
-1.545260e-12
4.989200e-13
-1.545260e-12
4.973700e-13
-1.609440e-12
4.973700e-13
-1.609440e-12
4.888300e-13
-1.688720e-12
4.888300e-13
-1.688720e-12
4.727000e-13
-1.784910e-12
4.727000e-13
-1.784910e-12
4.472300e-13
-1.897180e-12
4.472300e-13
-1.897180e-12
4.103200e-13
-2.027450e-12
4.103200e-13
-2.027450e-12
3.557300e-13
-2.179850e-12
3.557300e-13
-2.179850e-12
2.812900e-13
-2.352260e-12
2.812900e-13
-2.352260e-12
1.800100e-13
-2.543490e-12
1.800100e-13
-2.543490e-12
4.291000e-14
-2.754130e-12
4.291000e-14
-2.754130e-12
-1.380100e-13
-2.977430e-12
-1.380100e-13
-2.977430e-12
-3.760400e-13
-3.205410e-12
-3.760400e-13
-3.205410e-12
-6.902500e-13
-3.428400e-12
-6.902500e-13
-3.428400e-12
-1.094370e-12
-3.618690e-12
-1.094370e-12
-3.618690e-12
-1.481020e-12
-3.602770e-12
-1.481020e-12
-3.602770e-12
-8.991300e-13
-2.459840e-12
-8.991300e-13
-2.459840e-12
0.000000e+00
0.000000e+00
</DataArray>
<DataArray type="Float32" Name="V4" format="ascii">
8.500000e-01
1.000000e+00
8.500000e-01
1.000000e+00
8.500000e-01
1.000000e+00
8.500000e-01
1.000000e+00
8.500000e-01
1.000000e+00
8.500000e-01
1.000000e+00
8.500000e-01
1.000000e+00
8.500000e-01
1.000000e+00
8.500000e-01
1.000000e+00
8.500000e-01
1.000000e+00
8.500000e-01
1.000000e+00
8.500000e-01
1.000000e+00
8.500000e-01
1.000000e+00
8.500000e-01
1.000000e+00
8.500000e-01
1.000000e+00
8.500000e-01
1.000000e+00
8.500000e-01
1.000000e+00
8.500000e-01
1.000000e+00
8.500000e-01
1.000000e+00
8.500000e-01
1.000000e+00
8.500000e-01
1.000000e+00
8.500000e-01
1.000000e+00
8.500000e-01
1.000000e+00
8.500000e-01
1.000000e+00
8.500000e-01
1.000000e+00
8.500000e-01
1.000000e+00
8.500000e-01
1.000000e+00
8.500000e-01
1.000000e+00
8.500000e-01
1.000000e+00
8.500000e-01
1.000000e+00
8.500000e-01
1.000000e+00
8.500000e-01
1.000000e+00
8.500000e-01
1.000000e+00
8.500000e-01
1.000000e+00
8.500000e-01
1.000000e+00
8.500000e-01
1.000000e+00
8.500000e-01
1.000000e+00
8.500000e-01
1.000000e+00
8.500000e-01
1.000000e+00
8.500000e-01
1.000000e+00
8.500000e-01
1.000000e+00
8.500000e-01
1.000000e+00
8.500000e-01
1.000000e+00
8.500000e-01
1.000000e+00
8.500000e-01
1.000000e+00
8.500000e-01
1.000000e+00
8.500000e-01
1.000000e+00
8.500000e-01
1.000000e+00
8.500000e-01
1.000000e+00
8.500000e-01
1.000000e+00
8.500000e-01
1.000000e+00
8.500000e-01
1.000000e+00
8.500000e-01
1.000000e+00
8.500000e-01
1.000000e+00
8.500000e-01
1.000000e+00
8.500000e-01
1.000000e+00
8.500000e-01
1.000000e+00
8.500000e-01
1.000000e+00
8.500000e-01
1.000000e+00
8.500000e-01
1.000000e+00
</DataArray>
<DataArray type="Float32" Name="V5" format="ascii">
0.000000e+00
0.000000e+00
5.235988e-02
5.235988e-02
5.235988e-02
5.235988e-02
1.047198e-01
1.047198e-01
1.047198e-01
1.047198e-01
1.570796e-01
1.570796e-01
1.570796e-01
1.570796e-01
2.094395e-01
2.094395e-01
2.094395e-01
2.094395e-01
2.617994e-01
2.617994e-01
2.617994e-01
2.617994e-01
3.141593e-01
3.141593e-01
3.141593e-01
3.141593e-01
3.665191e-01
3.665191e-01
3.665191e-01
3.665191e-01
4.188790e-01
4.188790e-01
4.188790e-01
4.188790e-01
4.712389e-01
4.712389e-01
4.712389e-01
4.712389e-01
5.235988e-01
5.235988e-01
5.235988e-01
5.235988e-01
5.759587e-01
5.759587e-01
5.759587e-01
5.759587e-01
6.283185e-01
6.283185e-01
6.283185e-01
6.283185e-01
6.806784e-01
6.806784e-01
6.806784e-01
6.806784e-01
7.330383e-01
7.330383e-01
7.330383e-01
7.330383e-01
7.853982e-01
7.853982e-01
7.853982e-01
7.853982e-01
8.377580e-01
8.377580e-01
8.377580e-01
8.377580e-01
8.901179e-01
8.901179e-01
8.901179e-01
8.901179e-01
9.424778e-01
9.424778e-01
9.424778e-01
9.424778e-01
9.948377e-01
9.948377e-01
9.948377e-01
9.948377e-01
1.047198e+00
1.047198e+00
1.047198e+00
1.047198e+00
1.099557e+00
1.099557e+00
1.099557e+00
1.099557e+00
1.151917e+00
1.151917e+00
1.151917e+00
1.151917e+00
1.204277e+00
1.204277e+00
1.204277e+00
1.204277e+00
1.256637e+00
1.256637e+00
1.256637e+00
1.256637e+00
1.308997e+00
1.308997e+00
1.308997e+00
1.308997e+00
1.361357e+00
1.361357e+00
1.361357e+00
1.361357e+00
1.413717e+00
1.413717e+00
1.413717e+00
1.413717e+00
1.466077e+00
1.466077e+00
1.466077e+00
1.466077e+00
1.518436e+00
1.518436e+00
1.518436e+00
1.518436e+00
1.570796e+00
1.570796e+00
</DataArray>
</PointData>
</Piece></UnstructuredGrid>
</VTKFile>
