<?xml version="1.0"?>
<VTKFile type="UnstructuredGrid" version="0.1" byte_order="LittleEndian" compressor="vtkZLibDataCompressor">
<UnstructuredGrid>
<Piece NumberOfPoints="120" NumberOfCells="30">
<Points>
<DataArray type="Float32" NumberOfComponents="3" format="ascii">
0.000000e+00 1.025013e+00 0.000000e+00
0.000000e+00 1.130000e+00 0.000000e+00
5.514587e-02 1.024571e+00 0.000000e+00
6.036968e-02 1.130000e+00 0.000000e+00
5.514587e-02 1.024571e+00 0.000000e+00
6.036968e-02 1.130000e+00 0.000000e+00
1.101222e-01 1.023019e+00 0.000000e+00
1.201175e-01 1.129708e+00 0.000000e+00
1.101222e-01 1.023019e+00 0.000000e+00
1.201175e-01 1.129708e+00 0.000000e+00
1.646973e-01 1.018137e+00 0.000000e+00
1.792803e-01 1.124577e+00 0.000000e+00
1.646973e-01 1.018137e+00 0.000000e+00
1.792803e-01 1.124577e+00 0.000000e+00
2.184465e-01 1.010190e+00 0.000000e+00
2.383959e-01 1.115604e+00 0.000000e+00
2.184465e-01 1.010190e+00 0.000000e+00
2.383959e-01 1.115604e+00 0.000000e+00
2.715497e-01 9.990716e-01 0.000000e+00
2.970945e-01 1.103151e+00 0.000000e+00
2.715497e-01 9.990716e-01 0.000000e+00
2.970945e-01 1.103151e+00 0.000000e+00
3.239258e-01 9.849120e-01 0.000000e+00
3.550823e-01 1.087356e+00 0.000000e+00
3.239258e-01 9.849120e-01 0.000000e+00
3.550823e-01 1.087356e+00 0.000000e+00
3.754450e-01 9.678096e-01 0.000000e+00
4.121330e-01 1.068327e+00 0.000000e+00
3.754450e-01 9.678096e-01 0.000000e+00
4.121330e-01 1.068327e+00 0.000000e+00
4.259658e-01 9.478566e-01 0.000000e+00
4.680595e-01 1.046167e+00 0.000000e+00
4.259658e-01 9.478566e-01 0.000000e+00
4.680595e-01 1.046167e+00 0.000000e+00
4.753449e-01 9.251425e-01 0.000000e+00
5.226942e-01 1.020976e+00 0.000000e+00
4.753449e-01 9.251425e-01 0.000000e+00
5.226942e-01 1.020976e+00 0.000000e+00
5.234418e-01 8.997573e-01 0.000000e+00
5.758817e-01 9.928541e-01 0.000000e+00
5.234418e-01 8.997573e-01 0.000000e+00
5.758817e-01 9.928541e-01 0.000000e+00
5.701196e-01 8.717929e-01 0.000000e+00
6.274741e-01 9.619026e-01 0.000000e+00
5.701196e-01 8.717929e-01 0.000000e+00
6.274741e-01 9.619026e-01 0.000000e+00
6.152463e-01 8.413442e-01 0.000000e+00
6.773303e-01 9.282254e-01 0.000000e+00
6.152463e-01 8.413442e-01 0.000000e+00
6.773303e-01 9.282254e-01 0.000000e+00
6.586950e-01 8.085096e-01 0.000000e+00
7.253145e-01 8.919302e-01 0.000000e+00
6.586950e-01 8.085096e-01 0.000000e+00
7.253145e-01 8.919302e-01 0.000000e+00
7.003441e-01 7.733914e-01 0.000000e+00
7.712968e-01 8.531288e-01 0.000000e+00
7.003441e-01 7.733914e-01 0.000000e+00
7.712968e-01 8.531288e-01 0.000000e+00
7.400777e-01 7.360961e-01 0.000000e+00
8.151525e-01 8.119377e-01 0.000000e+00
7.400777e-01 7.360961e-01 0.000000e+00
8.151525e-01 8.119377e-01 0.000000e+00
7.777855e-01 6.967343e-01 0.000000e+00
8.567630e-01 7.684779e-01 0.000000e+00
7.777855e-01 6.967343e-01 0.000000e+00
8.567630e-01 7.684779e-01 0.000000e+00
8.133632e-01 6.554213e-01 0.000000e+00
8.960157e-01 7.228753e-01 0.000000e+00
8.133632e-01 6.554213e-01 0.000000e+00
8.960157e-01 7.228753e-01 0.000000e+00
8.467127e-01 6.122762e-01 0.000000e+00
9.328044e-01 6.752606e-01 0.000000e+00
8.467127e-01 6.122762e-01 0.000000e+00
9.328044e-01 6.752606e-01 0.000000e+00
8.777421e-01 5.674226e-01 0.000000e+00
9.670292e-01 6.257690e-01 0.000000e+00
8.777421e-01 5.674226e-01 0.000000e+00
9.670292e-01 6.257690e-01 0.000000e+00
9.063662e-01 5.209877e-01 0.000000e+00
9.985976e-01 5.745401e-01 0.000000e+00
9.063662e-01 5.209877e-01 0.000000e+00
9.985976e-01 5.745401e-01 0.000000e+00
9.325064e-01 4.731028e-01 0.000000e+00
1.027424e+00 5.217178e-01 0.000000e+00
9.325064e-01 4.731028e-01 0.000000e+00
1.027424e+00 5.217178e-01 0.000000e+00
9.560908e-01 4.239024e-01 0.000000e+00
1.053430e+00 4.674498e-01 0.000000e+00
9.560908e-01 4.239024e-01 0.000000e+00
1.053430e+00 4.674498e-01 0.000000e+00
9.770550e-01 3.735243e-01 0.000000e+00
1.076545e+00 4.118874e-01 0.000000e+00
9.770550e-01 3.735243e-01 0.000000e+00
1.076545e+00 4.118874e-01 0.000000e+00
9.953414e-01 3.221092e-01 0.000000e+00
1.096707e+00 3.551851e-01 0.000000e+00
9.953414e-01 3.221092e-01 0.000000e+00
1.096707e+00 3.551851e-01 0.000000e+00
1.010900e+00 2.698003e-01 0.000000e+00
1.113860e+00 2.975004e-01 0.000000e+00
1.010900e+00 2.698003e-01 0.000000e+00
1.113860e+00 2.975004e-01 0.000000e+00
1.023688e+00 2.167432e-01 0.000000e+00
1.127959e+00 2.389930e-01 0.000000e+00
1.023688e+00 2.167432e-01 0.000000e+00
1.127959e+00 2.389930e-01 0.000000e+00
1.033671e+00 1.630852e-01 0.000000e+00
1.138965e+00 1.798250e-01 0.000000e+00
1.033671e+00 1.630852e-01 0.000000e+00
1.138965e+00 1.798250e-01 0.000000e+00
1.040821e+00 1.089752e-01 0.000000e+00
1.146847e+00 1.201601e-01 0.000000e+00
1.040821e+00 1.089752e-01 0.000000e+00
1.146847e+00 1.201601e-01 0.000000e+00
1.045119e+00 5.456317e-02 0.000000e+00
1.151585e+00 6.016316e-02 0.000000e+00
1.045119e+00 5.456317e-02 0.000000e+00
1.151585e+00 6.016316e-02 0.000000e+00
1.046553e+00 5.124540e-12 0.000000e+00
1.153166e+00 5.646580e-12 0.000000e+00
</DataArray>
</Points>
<Cells>
<DataArray type="Int32" Name="connectivity" format="ascii">
0 1 3 2
4 5 7 6
8 9 11 10
12 13 15 14
16 17 19 18
20 21 23 22
24 25 27 26
28 29 31 30
32 33 35 34
36 37 39 38
40 41 43 42
44 45 47 46
48 49 51 50
52 53 55 54
56 57 59 58
60 61 63 62
64 65 67 66
68 69 71 70
72 73 75 74
76 77 79 78
80 81 83 82
84 85 87 86
88 89 91 90
92 93 95 94
96 97 99 98
100 101 103 102
104 105 107 106
108 109 111 110
112 113 115 114
116 117 119 118
</DataArray>
<DataArray type="Int32" Name="offsets" format="ascii">
4
8
12
16
20
24
28
32
36
40
44
48
52
56
60
64
68
72
76
80
84
88
92
96
100
104
108
112
116
120
</DataArray>
<DataArray type="UInt8" Name="types" format="ascii">
9
9
9
9
9
9
9
9
9
9
9
9
9
9
9
9
9
9
9
9
9
9
9
9
9
9
9
9
9
9
</DataArray>
</Cells>
<PointData>
<DataArray type="Float32" Name="V1" format="ascii">
1.033701e+01
3.469051e+00
1.062092e+01
3.752964e+00
9.569796e+00
4.612841e+00
1.014515e+01
5.188195e+00
9.158164e+00
6.067468e+00
9.348219e+00
6.257522e+00
9.020367e+00
6.456444e+00
9.073095e+00
6.509173e+00
8.929815e+00
6.619485e+00
8.967444e+00
6.657114e+00
8.901753e+00
6.709242e+00
8.932037e+00
6.739526e+00
8.902919e+00
6.762656e+00
8.927680e+00
6.787417e+00
8.917007e+00
6.795888e+00
8.937503e+00
6.816384e+00
8.936020e+00
6.817555e+00
8.953153e+00
6.834687e+00
8.956097e+00
6.832349e+00
8.970537e+00
6.846789e+00
8.975421e+00
6.842919e+00
8.987674e+00
6.855172e+00
8.993210e+00
6.850793e+00
9.003665e+00
6.861248e+00
9.009198e+00
6.856877e+00
9.018162e+00
6.865840e+00
9.023377e+00
6.861724e+00
9.031090e+00
6.869437e+00
9.035854e+00
6.865680e+00
9.042509e+00
6.872335e+00
9.046781e+00
6.868969e+00
9.052535e+00
6.874723e+00
9.056323e+00
6.871740e+00
9.061303e+00
6.876720e+00
9.064636e+00
6.874097e+00
9.068947e+00
6.878408e+00
9.071862e+00
6.876115e+00
9.075590e+00
6.879843e+00
9.078127e+00
6.877849e+00
9.081343e+00
6.881066e+00
9.083539e+00
6.879340e+00
9.086304e+00
6.882105e+00
9.088192e+00
6.880621e+00
9.090554e+00
6.882984e+00
9.092164e+00
6.881719e+00
9.094165e+00
6.883719e+00
9.095523e+00
6.882653e+00
9.097196e+00
6.884326e+00
9.098322e+00
6.883441e+00
9.099695e+00
6.884814e+00
9.100609e+00
6.884097e+00
9.101703e+00
6.885191e+00
9.102418e+00
6.884630e+00
9.103252e+00
6.885465e+00
9.103778e+00
6.885051e+00
9.104365e+00
6.885638e+00
9.104712e+00
6.885366e+00
9.105060e+00
6.885714e+00
9.105232e+00
6.885579e+00
9.105348e+00
6.885695e+00
</DataArray>
<DataArray type="Float32" Name="V2" format="ascii">
1.025013e+00
1.130000e+00
1.026053e+00
1.131611e+00
1.026053e+00
1.131611e+00
1.028925e+00
1.136075e+00
1.028925e+00
1.136075e+00
1.031367e+00
1.138777e+00
1.031367e+00
1.138777e+00
1.033532e+00
1.140791e+00
1.033532e+00
1.140791e+00
1.035311e+00
1.142456e+00
1.035311e+00
1.142456e+00
1.036806e+00
1.143863e+00
1.036806e+00
1.143863e+00
1.038076e+00
1.145064e+00
1.038076e+00
1.145064e+00
1.039166e+00
1.146098e+00
1.039166e+00
1.146098e+00
1.040110e+00
1.146995e+00
1.040110e+00
1.146995e+00
1.040934e+00
1.147778e+00
1.040934e+00
1.147778e+00
1.041656e+00
1.148466e+00
1.041656e+00
1.148466e+00
1.042294e+00
1.149075e+00
1.042294e+00
1.149075e+00
1.042860e+00
1.149615e+00
1.042860e+00
1.149615e+00
1.043364e+00
1.150097e+00
1.043364e+00
1.150097e+00
1.043812e+00
1.150527e+00
1.043812e+00
1.150527e+00
1.044214e+00
1.150911e+00
1.044214e+00
1.150911e+00
1.044572e+00
1.151255e+00
1.044572e+00
1.151255e+00
1.044892e+00
1.151563e+00
1.044892e+00
1.151563e+00
1.045177e+00
1.151837e+00
1.045177e+00
1.151837e+00
1.045430e+00
1.152081e+00
1.045430e+00
1.152081e+00
1.045653e+00
1.152296e+00
1.045653e+00
1.152296e+00
1.045849e+00
1.152485e+00
1.045849e+00
1.152485e+00
1.046019e+00
1.152649e+00
1.046019e+00
1.152649e+00
1.046163e+00
1.152789e+00
1.046163e+00
1.152789e+00
1.046284e+00
1.152905e+00
1.046284e+00
1.152905e+00
1.046382e+00
1.153000e+00
1.046382e+00
1.153000e+00
1.046457e+00
1.153073e+00
1.046457e+00
1.153073e+00
1.046511e+00
1.153125e+00
1.046511e+00
1.153125e+00
1.046543e+00
1.153156e+00
1.046543e+00
1.153156e+00
1.046553e+00
1.153166e+00
</DataArray>
<DataArray type="Float32" Name="V3" format="ascii">
0.000000e+00
0.000000e+00
1.448417e-03
1.147311e-03
1.448417e-03
1.147311e-03
2.584398e-03
1.372765e-03
2.584398e-03
1.372765e-03
3.397842e-03
1.150450e-03
3.397842e-03
1.150450e-03
3.642726e-03
1.239242e-03
3.642726e-03
1.239242e-03
3.718111e-03
1.454780e-03
3.718111e-03
1.454780e-03
3.717228e-03
1.691884e-03
3.717228e-03
1.691884e-03
3.676180e-03
1.905204e-03
3.676180e-03
1.905204e-03
3.611058e-03
2.079183e-03
3.611058e-03
2.079183e-03
3.529519e-03
2.210559e-03
3.529519e-03
2.210559e-03
3.435255e-03
2.301100e-03
3.435255e-03
2.301100e-03
3.330092e-03
2.354411e-03
3.330092e-03
2.354411e-03
3.215000e-03
2.374548e-03
3.215000e-03
2.374548e-03
3.090568e-03
2.365426e-03
3.090568e-03
2.365426e-03
2.957246e-03
2.330599e-03
2.957246e-03
2.330599e-03
2.815439e-03
2.273206e-03
2.815439e-03
2.273206e-03
2.665563e-03
2.195990e-03
2.665563e-03
2.195990e-03
2.508055e-03
2.101341e-03
2.508055e-03
2.101341e-03
2.343378e-03
1.991350e-03
2.343378e-03
1.991350e-03
2.172021e-03
1.867859e-03
2.172021e-03
1.867859e-03
1.994492e-03
1.732505e-03
1.994492e-03
1.732505e-03
1.811317e-03
1.586759e-03
1.811317e-03
1.586759e-03
1.623035e-03
1.431955e-03
1.623035e-03
1.431955e-03
1.430193e-03
1.269318e-03
1.430193e-03
1.269318e-03
1.233349e-03
1.099987e-03
1.233349e-03
1.099987e-03
1.033065e-03
9.250292e-04
1.033065e-03
9.250292e-04
8.299077e-04
7.454576e-04
8.299077e-04
7.454576e-04
6.244484e-04
5.622421e-04
6.244484e-04
5.622421e-04
4.172603e-04
3.763201e-04
4.172603e-04
3.763201e-04
2.089187e-04
1.886062e-04
2.089187e-04
1.886062e-04
0.000000e+00
0.000000e+00
</DataArray>
<DataArray type="Float32" Name="V4" format="ascii">
8.500000e-01
1.000000e+00
8.500000e-01
1.000000e+00
8.500000e-01
1.000000e+00
8.500000e-01
1.000000e+00
8.500000e-01
1.000000e+00
8.500000e-01
1.000000e+00
8.500000e-01
1.000000e+00
8.500000e-01
1.000000e+00
8.500000e-01
1.000000e+00
8.500000e-01
1.000000e+00
8.500000e-01
1.000000e+00
8.500000e-01
1.000000e+00
8.500000e-01
1.000000e+00
8.500000e-01
1.000000e+00
8.500000e-01
1.000000e+00
8.500000e-01
1.000000e+00
8.500000e-01
1.000000e+00
8.500000e-01
1.000000e+00
8.500000e-01
1.000000e+00
8.500000e-01
1.000000e+00
8.500000e-01
1.000000e+00
8.500000e-01
1.000000e+00
8.500000e-01
1.000000e+00
8.500000e-01
1.000000e+00
8.500000e-01
1.000000e+00
8.500000e-01
1.000000e+00
8.500000e-01
1.000000e+00
8.500000e-01
1.000000e+00
8.500000e-01
1.000000e+00
8.500000e-01
1.000000e+00
8.500000e-01
1.000000e+00
8.500000e-01
1.000000e+00
8.500000e-01
1.000000e+00
8.500000e-01
1.000000e+00
8.500000e-01
1.000000e+00
8.500000e-01
1.000000e+00
8.500000e-01
1.000000e+00
8.500000e-01
1.000000e+00
8.500000e-01
1.000000e+00
8.500000e-01
1.000000e+00
8.500000e-01
1.000000e+00
8.500000e-01
1.000000e+00
8.500000e-01
1.000000e+00
8.500000e-01
1.000000e+00
8.500000e-01
1.000000e+00
8.500000e-01
1.000000e+00
8.500000e-01
1.000000e+00
8.500000e-01
1.000000e+00
8.500000e-01
1.000000e+00
8.500000e-01
1.000000e+00
8.500000e-01
1.000000e+00
8.500000e-01
1.000000e+00
8.500000e-01
1.000000e+00
8.500000e-01
1.000000e+00
8.500000e-01
1.000000e+00
8.500000e-01
1.000000e+00
8.500000e-01
1.000000e+00
8.500000e-01
1.000000e+00
8.500000e-01
1.000000e+00
8.500000e-01
1.000000e+00
</DataArray>
<DataArray type="Float32" Name="V5" format="ascii">
0.000000e+00
0.000000e+00
5.235988e-02
5.235988e-02
5.235988e-02
5.235988e-02
1.047198e-01
1.047198e-01
1.047198e-01
1.047198e-01
1.570796e-01
1.570796e-01
1.570796e-01
1.570796e-01
2.094395e-01
2.094395e-01
2.094395e-01
2.094395e-01
2.617994e-01
2.617994e-01
2.617994e-01
2.617994e-01
3.141593e-01
3.141593e-01
3.141593e-01
3.141593e-01
3.665191e-01
3.665191e-01
3.665191e-01
3.665191e-01
4.188790e-01
4.188790e-01
4.188790e-01
4.188790e-01
4.712389e-01
4.712389e-01
4.712389e-01
4.712389e-01
5.235988e-01
5.235988e-01
5.235988e-01
5.235988e-01
5.759587e-01
5.759587e-01
5.759587e-01
5.759587e-01
6.283185e-01
6.283185e-01
6.283185e-01
6.283185e-01
6.806784e-01
6.806784e-01
6.806784e-01
6.806784e-01
7.330383e-01
7.330383e-01
7.330383e-01
7.330383e-01
7.853982e-01
7.853982e-01
7.853982e-01
7.853982e-01
8.377580e-01
8.377580e-01
8.377580e-01
8.377580e-01
8.901179e-01
8.901179e-01
8.901179e-01
8.901179e-01
9.424778e-01
9.424778e-01
9.424778e-01
9.424778e-01
9.948377e-01
9.948377e-01
9.948377e-01
9.948377e-01
1.047198e+00
1.047198e+00
1.047198e+00
1.047198e+00
1.099557e+00
1.099557e+00
1.099557e+00
1.099557e+00
1.151917e+00
1.151917e+00
1.151917e+00
1.151917e+00
1.204277e+00
1.204277e+00
1.204277e+00
1.204277e+00
1.256637e+00
1.256637e+00
1.256637e+00
1.256637e+00
1.308997e+00
1.308997e+00
1.308997e+00
1.308997e+00
1.361357e+00
1.361357e+00
1.361357e+00
1.361357e+00
1.413717e+00
1.413717e+00
1.413717e+00
1.413717e+00
1.466077e+00
1.466077e+00
1.466077e+00
1.466077e+00
1.518436e+00
1.518436e+00
1.518436e+00
1.518436e+00
1.570796e+00
1.570796e+00
</DataArray>
</PointData>
</Piece></UnstructuredGrid>
</VTKFile>
