<?xml version="1.0"?>
<VTKFile type="UnstructuredGrid" version="0.1" byte_order="LittleEndian" compressor="vtkZLibDataCompressor">
<UnstructuredGrid>
<Piece NumberOfPoints="120" NumberOfCells="30">
<Points>
<DataArray type="Float32" NumberOfComponents="3" format="ascii">
0.000000e+00 3.607229e-01 0.000000e+00
0.000000e+00 3.910000e-01 0.000000e+00
1.080198e-01 3.607731e-01 0.000000e+00
1.080132e-01 3.910000e-01 0.000000e+00
1.080198e-01 3.607731e-01 0.000000e+00
1.080132e-01 3.910000e-01 0.000000e+00
2.160318e-01 3.608103e-01 0.000000e+00
2.160195e-01 3.910000e-01 0.000000e+00
2.160318e-01 3.608103e-01 0.000000e+00
2.160195e-01 3.910000e-01 0.000000e+00
3.240220e-01 3.608698e-01 0.000000e+00
3.240034e-01 3.910000e-01 0.000000e+00
3.240220e-01 3.608698e-01 0.000000e+00
3.240034e-01 3.910000e-01 0.000000e+00
4.319795e-01 3.609527e-01 0.000000e+00
4.319543e-01 3.910000e-01 0.000000e+00
4.319795e-01 3.609527e-01 0.000000e+00
4.319543e-01 3.910000e-01 0.000000e+00
5.398929e-01 3.610590e-01 0.000000e+00
5.398605e-01 3.910000e-01 0.000000e+00
5.398929e-01 3.610590e-01 0.000000e+00
5.398605e-01 3.910000e-01 0.000000e+00
6.477505e-01 3.611884e-01 0.000000e+00
6.477102e-01 3.910000e-01 0.000000e+00
6.477505e-01 3.611884e-01 0.000000e+00
6.477102e-01 3.910000e-01 0.000000e+00
7.555398e-01 3.613407e-01 0.000000e+00
7.554907e-01 3.910000e-01 0.000000e+00
7.555398e-01 3.613407e-01 0.000000e+00
7.554907e-01 3.910000e-01 0.000000e+00
8.632477e-01 3.615154e-01 0.000000e+00
8.631887e-01 3.910000e-01 0.000000e+00
8.632477e-01 3.615154e-01 0.000000e+00
8.631887e-01 3.910000e-01 0.000000e+00
9.708600e-01 3.617122e-01 0.000000e+00
9.707900e-01 3.910000e-01 0.000000e+00
9.708600e-01 3.617122e-01 0.000000e+00
9.707900e-01 3.910000e-01 0.000000e+00
1.078362e+00 3.619305e-01 0.000000e+00
1.078279e+00 3.910000e-01 0.000000e+00
1.078362e+00 3.619305e-01 0.000000e+00
1.078279e+00 3.910000e-01 0.000000e+00
1.185737e+00 3.621699e-01 0.000000e+00
1.185640e+00 3.910000e-01 0.000000e+00
1.185737e+00 3.621699e-01 0.000000e+00
1.185640e+00 3.910000e-01 0.000000e+00
1.292967e+00 3.624297e-01 0.000000e+00
1.292855e+00 3.910000e-01 0.000000e+00
1.292967e+00 3.624297e-01 0.000000e+00
1.292855e+00 3.910000e-01 0.000000e+00
1.400034e+00 3.627094e-01 0.000000e+00
1.399906e+00 3.910000e-01 0.000000e+00
1.400034e+00 3.627094e-01 0.000000e+00
1.399906e+00 3.910000e-01 0.000000e+00
1.506917e+00 3.630080e-01 0.000000e+00
1.506771e+00 3.910000e-01 0.000000e+00
1.506917e+00 3.630080e-01 0.000000e+00
1.506771e+00 3.910000e-01 0.000000e+00
1.613591e+00 3.633245e-01 0.000000e+00
1.613431e+00 3.910000e-01 0.000000e+00
1.613591e+00 3.633245e-01 0.000000e+00
1.613431e+00 3.910000e-01 0.000000e+00
1.720030e+00 3.636574e-01 0.000000e+00
1.719863e+00 3.910000e-01 0.000000e+00
1.720030e+00 3.636574e-01 0.000000e+00
1.719863e+00 3.910000e-01 0.000000e+00
1.826204e+00 3.640044e-01 0.000000e+00
1.826045e+00 3.910000e-01 0.000000e+00
1.826204e+00 3.640044e-01 0.000000e+00
1.826045e+00 3.910000e-01 0.000000e+00
1.932077e+00 3.643619e-01 0.000000e+00
1.931959e+00 3.910000e-01 0.000000e+00
1.932077e+00 3.643619e-01 0.000000e+00
1.931959e+00 3.910000e-01 0.000000e+00
2.037604e+00 3.647254e-01 0.000000e+00
2.037592e+00 3.910000e-01 0.000000e+00
2.037604e+00 3.647254e-01 0.000000e+00
2.037592e+00 3.910000e-01 0.000000e+00
2.142729e+00 3.650902e-01 0.000000e+00
2.142953e+00 3.910000e-01 0.000000e+00
2.142729e+00 3.650902e-01 0.000000e+00
2.142953e+00 3.910000e-01 0.000000e+00
2.247374e+00 3.654595e-01 0.000000e+00
2.248096e+00 3.910000e-01 0.000000e+00
2.247374e+00 3.654595e-01 0.000000e+00
2.248096e+00 3.910000e-01 0.000000e+00
2.351420e+00 3.658637e-01 0.000000e+00
2.353162e+00 3.910000e-01 0.000000e+00
2.351420e+00 3.658637e-01 0.000000e+00
2.353162e+00 3.910000e-01 0.000000e+00
2.454654e+00 3.663947e-01 0.000000e+00
2.458419e+00 3.910000e-01 0.000000e+00
2.454654e+00 3.663947e-01 0.000000e+00
2.458419e+00 3.910000e-01 0.000000e+00
2.556857e+00 3.672854e-01 0.000000e+00
2.564425e+00 3.910000e-01 0.000000e+00
2.556857e+00 3.672854e-01 0.000000e+00
2.564425e+00 3.910000e-01 0.000000e+00
2.661918e+00 3.623691e-01 0.000000e+00
2.672737e+00 3.834439e-01 0.000000e+00
2.661918e+00 3.623691e-01 0.000000e+00
2.672737e+00 3.834439e-01 0.000000e+00
2.753141e+00 3.254914e-01 0.000000e+00
2.766237e+00 3.438927e-01 0.000000e+00
2.753141e+00 3.254914e-01 0.000000e+00
2.766237e+00 3.438927e-01 0.000000e+00
2.827067e+00 2.641390e-01 0.000000e+00
2.843509e+00 2.792466e-01 0.000000e+00
2.827067e+00 2.641390e-01 0.000000e+00
2.843509e+00 2.792466e-01 0.000000e+00
2.881152e+00 1.854653e-01 0.000000e+00
2.900732e+00 1.962324e-01 0.000000e+00
2.881152e+00 1.854653e-01 0.000000e+00
2.900732e+00 1.962324e-01 0.000000e+00
2.913829e+00 9.560385e-02 0.000000e+00
2.935403e+00 1.012284e-01 0.000000e+00
2.913829e+00 9.560385e-02 0.000000e+00
2.935403e+00 1.012284e-01 0.000000e+00
2.924771e+00 1.432140e-11 0.000000e+00
2.946953e+00 1.443002e-11 0.000000e+00
</DataArray>
</Points>
<Cells>
<DataArray type="Int32" Name="connectivity" format="ascii">
0 1 3 2
4 5 7 6
8 9 11 10
12 13 15 14
16 17 19 18
20 21 23 22
24 25 27 26
28 29 31 30
32 33 35 34
36 37 39 38
40 41 43 42
44 45 47 46
48 49 51 50
52 53 55 54
56 57 59 58
60 61 63 62
64 65 67 66
68 69 71 70
72 73 75 74
76 77 79 78
80 81 83 82
84 85 87 86
88 89 91 90
92 93 95 94
96 97 99 98
100 101 103 102
104 105 107 106
108 109 111 110
112 113 115 114
116 117 119 118
</DataArray>
<DataArray type="Int32" Name="offsets" format="ascii">
4
8
12
16
20
24
28
32
36
40
44
48
52
56
60
64
68
72
76
80
84
88
92
96
100
104
108
112
116
120
</DataArray>
<DataArray type="UInt8" Name="types" format="ascii">
9
9
9
9
9
9
9
9
9
9
9
9
9
9
9
9
9
9
9
9
9
9
9
9
9
9
9
9
9
9
</DataArray>
</Cells>
<PointData>
<DataArray type="Float32" Name="V1" format="ascii">
1.693516e+03
2.712623e+02
1.695265e+03
2.730114e+02
1.697396e+03
2.713734e+02
1.702157e+03
2.761337e+02
1.706592e+03
2.730347e+02
1.714488e+03
2.809310e+02
1.721293e+03
2.763233e+02
1.732398e+03
2.874280e+02
1.741649e+03
2.812669e+02
1.756093e+03
2.957111e+02
1.767890e+03
2.879227e+02
1.785847e+03
3.058804e+02
1.800319e+03
2.963712e+02
1.822008e+03
3.180603e+02
1.839320e+03
3.067162e+02
1.865008e+03
3.324045e+02
1.885366e+03
3.190878e+02
1.915378e+03
3.491000e+02
1.939028e+03
3.336453e+02
1.973756e+03
3.683732e+02
2.000993e+03
3.505825e+02
2.040907e+03
3.904965e+02
2.072079e+03
3.701339e+02
2.117744e+03
4.157988e+02
2.153259e+03
3.925826e+02
2.205354e+03
4.446780e+02
2.245678e+03
4.182721e+02
2.305026e+03
4.776201e+02
2.350688e+03
4.476220e+02
2.418291e+03
5.152257e+02
2.469863e+03
4.811522e+02
2.546961e+03
5.582503e+02
2.605028e+03
5.195216e+02
2.693172e+03
6.076651e+02
2.758260e+03
5.635940e+02
2.859419e+03
6.647525e+02
2.931859e+03
6.145657e+02
3.048547e+03
7.312538e+02
3.128250e+03
6.742389e+02
3.263612e+03
8.096012e+02
3.349720e+03
7.456638e+02
3.507366e+03
9.033098e+02
3.597689e+03
8.346922e+02
3.780811e+03
1.017814e+03
3.870552e+03
9.534207e+02
4.079967e+03
1.162836e+03
4.158418e+03
1.124932e+03
4.391881e+03
1.358395e+03
4.457185e+03
1.375043e+03
4.718379e+03
1.636237e+03
4.764405e+03
1.665522e+03
5.036223e+03
1.937340e+03
5.150018e+03
1.882270e+03
5.428860e+03
2.161112e+03
5.547630e+03
2.077502e+03
5.774367e+03
2.304239e+03
5.891608e+03
2.222643e+03
6.030891e+03
2.361926e+03
6.113254e+03
2.308204e+03
6.159187e+03
2.354137e+03
</DataArray>
<DataArray type="Float32" Name="V2" format="ascii">
3.607229e-01
3.910000e-01
3.659320e-01
3.961171e-01
3.659320e-01
3.961171e-01
3.814152e-01
4.114382e-01
3.814152e-01
4.114382e-01
4.071151e-01
4.368714e-01
4.071151e-01
4.368714e-01
4.428786e-01
4.722641e-01
4.428786e-01
4.722641e-01
4.884907e-01
5.174032e-01
4.884907e-01
5.174032e-01
5.436765e-01
5.720166e-01
5.436765e-01
5.720166e-01
6.081018e-01
6.357736e-01
6.081018e-01
6.357736e-01
6.813752e-01
7.082868e-01
6.813752e-01
7.082868e-01
7.630491e-01
7.891130e-01
7.630491e-01
7.891130e-01
8.526219e-01
8.777555e-01
8.526219e-01
8.777555e-01
9.495397e-01
9.736661e-01
9.495397e-01
9.736661e-01
1.053199e+00
1.076247e+00
1.053199e+00
1.076247e+00
1.162948e+00
1.184853e+00
1.162948e+00
1.184853e+00
1.278091e+00
1.298796e+00
1.278091e+00
1.298796e+00
1.397890e+00
1.417347e+00
1.397890e+00
1.417347e+00
1.521566e+00
1.539737e+00
1.521566e+00
1.539737e+00
1.648303e+00
1.665168e+00
1.648303e+00
1.665168e+00
1.777250e+00
1.792811e+00
1.777250e+00
1.792811e+00
1.907523e+00
1.921822e+00
1.907523e+00
1.921822e+00
2.038203e+00
2.051352e+00
2.038203e+00
2.051352e+00
2.168340e+00
2.180578e+00
2.168340e+00
2.180578e+00
2.296939e+00
2.308755e+00
2.296939e+00
2.308755e+00
2.422921e+00
2.435254e+00
2.422921e+00
2.435254e+00
2.545212e+00
2.559738e+00
2.545212e+00
2.559738e+00
2.665004e+00
2.680908e+00
2.665004e+00
2.680908e+00
2.760652e+00
2.777287e+00
2.760652e+00
2.777287e+00
2.833582e+00
2.852184e+00
2.833582e+00
2.852184e+00
2.884755e+00
2.905353e+00
2.884755e+00
2.905353e+00
2.914839e+00
2.936678e+00
2.914839e+00
2.936678e+00
2.924771e+00
2.946953e+00
</DataArray>
<DataArray type="Float32" Name="V3" format="ascii">
0.000000e+00
0.000000e+00
8.899034e-02
8.740180e-02
8.899034e-02
8.740180e-02
1.771334e-01
1.739655e-01
1.771334e-01
1.739655e-01
2.635803e-01
2.588485e-01
2.635803e-01
2.588485e-01
3.474934e-01
3.412216e-01
3.474934e-01
3.412216e-01
4.280476e-01
4.202670e-01
4.280476e-01
4.202670e-01
5.044340e-01
4.951834e-01
5.044340e-01
4.951834e-01
5.758643e-01
5.651895e-01
5.758643e-01
5.651895e-01
6.415744e-01
6.295281e-01
6.415744e-01
6.295281e-01
7.008287e-01
6.874699e-01
7.008287e-01
6.874699e-01
7.529234e-01
7.383172e-01
7.529234e-01
7.383172e-01
7.971907e-01
7.814076e-01
7.971907e-01
7.814076e-01
8.330017e-01
8.161178e-01
8.330017e-01
8.161178e-01
8.597706e-01
8.418667e-01
8.597706e-01
8.418667e-01
8.769575e-01
8.581192e-01
8.769575e-01
8.581192e-01
8.840716e-01
8.643892e-01
8.840716e-01
8.643892e-01
8.806746e-01
8.602432e-01
8.806746e-01
8.602432e-01
8.663831e-01
8.453033e-01
8.663831e-01
8.453033e-01
8.408715e-01
8.192511e-01
8.408715e-01
8.192511e-01
8.038745e-01
7.818319e-01
8.038745e-01
7.818319e-01
7.551870e-01
7.328606e-01
7.551870e-01
7.328606e-01
6.946594e-01
6.722306e-01
6.946594e-01
6.722306e-01
6.221754e-01
5.999210e-01
6.221754e-01
5.999210e-01
5.376103e-01
5.159887e-01
5.376103e-01
5.159887e-01
4.408030e-01
4.205876e-01
4.408030e-01
4.205876e-01
3.389335e-01
3.213769e-01
3.389335e-01
3.213769e-01
2.540315e-01
2.387553e-01
2.540315e-01
2.387553e-01
1.813638e-01
1.690142e-01
1.813638e-01
1.690142e-01
1.167131e-01
1.080517e-01
1.167131e-01
1.080517e-01
5.702521e-02
5.253744e-02
5.702521e-02
5.253744e-02
0.000000e+00
0.000000e+00
</DataArray>
<DataArray type="Float32" Name="V4" format="ascii">
8.500000e-01
1.000000e+00
8.500000e-01
1.000000e+00
8.500000e-01
1.000000e+00
8.500000e-01
1.000000e+00
8.500000e-01
1.000000e+00
8.500000e-01
1.000000e+00
8.500000e-01
1.000000e+00
8.500000e-01
1.000000e+00
8.500000e-01
1.000000e+00
8.500000e-01
1.000000e+00
8.500000e-01
1.000000e+00
8.500000e-01
1.000000e+00
8.500000e-01
1.000000e+00
8.500000e-01
1.000000e+00
8.500000e-01
1.000000e+00
8.500000e-01
1.000000e+00
8.500000e-01
1.000000e+00
8.500000e-01
1.000000e+00
8.500000e-01
1.000000e+00
8.500000e-01
1.000000e+00
8.500000e-01
1.000000e+00
8.500000e-01
1.000000e+00
8.500000e-01
1.000000e+00
8.500000e-01
1.000000e+00
8.500000e-01
1.000000e+00
8.500000e-01
1.000000e+00
8.500000e-01
1.000000e+00
8.500000e-01
1.000000e+00
8.500000e-01
1.000000e+00
8.500000e-01
1.000000e+00
8.500000e-01
1.000000e+00
8.500000e-01
1.000000e+00
8.500000e-01
1.000000e+00
8.500000e-01
1.000000e+00
8.500000e-01
1.000000e+00
8.500000e-01
1.000000e+00
8.500000e-01
1.000000e+00
8.500000e-01
1.000000e+00
8.500000e-01
1.000000e+00
8.500000e-01
1.000000e+00
8.500000e-01
1.000000e+00
8.500000e-01
1.000000e+00
8.500000e-01
1.000000e+00
8.500000e-01
1.000000e+00
8.500000e-01
1.000000e+00
8.500000e-01
1.000000e+00
8.500000e-01
1.000000e+00
8.500000e-01
1.000000e+00
8.500000e-01
1.000000e+00
8.500000e-01
1.000000e+00
8.500000e-01
1.000000e+00
8.500000e-01
1.000000e+00
8.500000e-01
1.000000e+00
8.500000e-01
1.000000e+00
8.500000e-01
1.000000e+00
8.500000e-01
1.000000e+00
8.500000e-01
1.000000e+00
8.500000e-01
1.000000e+00
8.500000e-01
1.000000e+00
8.500000e-01
1.000000e+00
</DataArray>
<DataArray type="Float32" Name="V5" format="ascii">
0.000000e+00
0.000000e+00
5.235988e-02
5.235988e-02
5.235988e-02
5.235988e-02
1.047198e-01
1.047198e-01
1.047198e-01
1.047198e-01
1.570796e-01
1.570796e-01
1.570796e-01
1.570796e-01
2.094395e-01
2.094395e-01
2.094395e-01
2.094395e-01
2.617994e-01
2.617994e-01
2.617994e-01
2.617994e-01
3.141593e-01
3.141593e-01
3.141593e-01
3.141593e-01
3.665191e-01
3.665191e-01
3.665191e-01
3.665191e-01
4.188790e-01
4.188790e-01
4.188790e-01
4.188790e-01
4.712389e-01
4.712389e-01
4.712389e-01
4.712389e-01
5.235988e-01
5.235988e-01
5.235988e-01
5.235988e-01
5.759587e-01
5.759587e-01
5.759587e-01
5.759587e-01
6.283185e-01
6.283185e-01
6.283185e-01
6.283185e-01
6.806784e-01
6.806784e-01
6.806784e-01
6.806784e-01
7.330383e-01
7.330383e-01
7.330383e-01
7.330383e-01
7.853982e-01
7.853982e-01
7.853982e-01
7.853982e-01
8.377580e-01
8.377580e-01
8.377580e-01
8.377580e-01
8.901179e-01
8.901179e-01
8.901179e-01
8.901179e-01
9.424778e-01
9.424778e-01
9.424778e-01
9.424778e-01
9.948377e-01
9.948377e-01
9.948377e-01
9.948377e-01
1.047198e+00
1.047198e+00
1.047198e+00
1.047198e+00
1.099557e+00
1.099557e+00
1.099557e+00
1.099557e+00
1.151917e+00
1.151917e+00
1.151917e+00
1.151917e+00
1.204277e+00
1.204277e+00
1.204277e+00
1.204277e+00
1.256637e+00
1.256637e+00
1.256637e+00
1.256637e+00
1.308997e+00
1.308997e+00
1.308997e+00
1.308997e+00
1.361357e+00
1.361357e+00
1.361357e+00
1.361357e+00
1.413717e+00
1.413717e+00
1.413717e+00
1.413717e+00
1.466077e+00
1.466077e+00
1.466077e+00
1.466077e+00
1.518436e+00
1.518436e+00
1.518436e+00
1.518436e+00
1.570796e+00
1.570796e+00
</DataArray>
</PointData>
</Piece></UnstructuredGrid>
</VTKFile>
