<?xml version="1.0"?>
<VTKFile type="UnstructuredGrid" version="0.1" byte_order="LittleEndian" compressor="vtkZLibDataCompressor">
<UnstructuredGrid>
<Piece NumberOfPoints="120" NumberOfCells="30">
<Points>
<DataArray type="Float32" NumberOfComponents="3" format="ascii">
0.000000e+00 9.736854e-01 0.000000e+00
0.000000e+00 1.080000e+00 0.000000e+00
5.657787e-02 9.737812e-01 0.000000e+00
5.864491e-02 1.080000e+00 0.000000e+00
5.657787e-02 9.737812e-01 0.000000e+00
5.864491e-02 1.080000e+00 0.000000e+00
1.127551e-01 9.738629e-01 0.000000e+00
1.175857e-01 1.080000e+00 0.000000e+00
1.127551e-01 9.738629e-01 0.000000e+00
1.175857e-01 1.080000e+00 0.000000e+00
1.680751e-01 9.734663e-01 0.000000e+00
1.769285e-01 1.080000e+00 0.000000e+00
1.680751e-01 9.734663e-01 0.000000e+00
1.769285e-01 1.080000e+00 0.000000e+00
2.227130e-01 9.718865e-01 0.000000e+00
2.359594e-01 1.079354e+00 0.000000e+00
2.227130e-01 9.718865e-01 0.000000e+00
2.359594e-01 1.079354e+00 0.000000e+00
2.764982e-01 9.665022e-01 0.000000e+00
2.946287e-01 1.073155e+00 0.000000e+00
2.764982e-01 9.665022e-01 0.000000e+00
2.946287e-01 1.073155e+00 0.000000e+00
3.291760e-01 9.574949e-01 0.000000e+00
3.532533e-01 1.062528e+00 0.000000e+00
3.291760e-01 9.574949e-01 0.000000e+00
3.532533e-01 1.062528e+00 0.000000e+00
3.809782e-01 9.447508e-01 0.000000e+00
4.113098e-01 1.047790e+00 0.000000e+00
3.809782e-01 9.447508e-01 0.000000e+00
4.113098e-01 1.047790e+00 0.000000e+00
4.318397e-01 9.284936e-01 0.000000e+00
4.683912e-01 1.029188e+00 0.000000e+00
4.318397e-01 9.284936e-01 0.000000e+00
4.683912e-01 1.029188e+00 0.000000e+00
4.816259e-01 9.089086e-01 0.000000e+00
5.242059e-01 1.006940e+00 0.000000e+00
4.816259e-01 9.089086e-01 0.000000e+00
5.242059e-01 1.006940e+00 0.000000e+00
5.301848e-01 8.861719e-01 0.000000e+00
5.785376e-01 9.812569e-01 0.000000e+00
5.301848e-01 8.861719e-01 0.000000e+00
5.785376e-01 9.812569e-01 0.000000e+00
5.773629e-01 8.604488e-01 0.000000e+00
6.312101e-01 9.523294e-01 0.000000e+00
5.773629e-01 8.604488e-01 0.000000e+00
6.312101e-01 9.523294e-01 0.000000e+00
6.230118e-01 8.318965e-01 0.000000e+00
6.820704e-01 9.203358e-01 0.000000e+00
6.230118e-01 8.318965e-01 0.000000e+00
6.820704e-01 9.203358e-01 0.000000e+00
6.669904e-01 8.006660e-01 0.000000e+00
7.309801e-01 8.854433e-01 0.000000e+00
6.669904e-01 8.006660e-01 0.000000e+00
7.309801e-01 8.854433e-01 0.000000e+00
7.091658e-01 7.669036e-01 0.000000e+00
7.778101e-01 8.478118e-01 0.000000e+00
7.091658e-01 7.669036e-01 0.000000e+00
7.778101e-01 8.478118e-01 0.000000e+00
7.494133e-01 7.307529e-01 0.000000e+00
8.224394e-01 8.075967e-01 0.000000e+00
7.494133e-01 7.307529e-01 0.000000e+00
8.224394e-01 8.075967e-01 0.000000e+00
7.876159e-01 6.923560e-01 0.000000e+00
8.647533e-01 7.649506e-01 0.000000e+00
7.876159e-01 6.923560e-01 0.000000e+00
8.647533e-01 7.649506e-01 0.000000e+00
8.236643e-01 6.518540e-01 0.000000e+00
9.046433e-01 7.200252e-01 0.000000e+00
8.236643e-01 6.518540e-01 0.000000e+00
9.046433e-01 7.200252e-01 0.000000e+00
8.574566e-01 6.093887e-01 0.000000e+00
9.420073e-01 6.729728e-01 0.000000e+00
8.574566e-01 6.093887e-01 0.000000e+00
9.420073e-01 6.729728e-01 0.000000e+00
8.888983e-01 5.651023e-01 0.000000e+00
9.767491e-01 6.239462e-01 0.000000e+00
8.888983e-01 5.651023e-01 0.000000e+00
9.767491e-01 6.239462e-01 0.000000e+00
9.179020e-01 5.191387e-01 0.000000e+00
1.008780e+00 5.731003e-01 0.000000e+00
9.179020e-01 5.191387e-01 0.000000e+00
1.008780e+00 5.731003e-01 0.000000e+00
9.443877e-01 4.716429e-01 0.000000e+00
1.038016e+00 5.205914e-01 0.000000e+00
9.443877e-01 4.716429e-01 0.000000e+00
1.038016e+00 5.205914e-01 0.000000e+00
9.682828e-01 4.227619e-01 0.000000e+00
1.064382e+00 4.665783e-01 0.000000e+00
9.682828e-01 4.227619e-01 0.000000e+00
1.064382e+00 4.665783e-01 0.000000e+00
9.895219e-01 3.726443e-01 0.000000e+00
1.087811e+00 4.112217e-01 0.000000e+00
9.895219e-01 3.726443e-01 0.000000e+00
1.087811e+00 4.112217e-01 0.000000e+00
1.008047e+00 3.214403e-01 0.000000e+00
1.108240e+00 3.546845e-01 0.000000e+00
1.008047e+00 3.214403e-01 0.000000e+00
1.108240e+00 3.546845e-01 0.000000e+00
1.023808e+00 2.693019e-01 0.000000e+00
1.125618e+00 2.971312e-01 0.000000e+00
1.023808e+00 2.693019e-01 0.000000e+00
1.125618e+00 2.971312e-01 0.000000e+00
1.036762e+00 2.163824e-01 0.000000e+00
1.139898e+00 2.387285e-01 0.000000e+00
1.036762e+00 2.163824e-01 0.000000e+00
1.139898e+00 2.387285e-01 0.000000e+00
1.046874e+00 1.628364e-01 0.000000e+00
1.151044e+00 1.796444e-01 0.000000e+00
1.046874e+00 1.628364e-01 0.000000e+00
1.151044e+00 1.796444e-01 0.000000e+00
1.054116e+00 1.088196e-01 0.000000e+00
1.159026e+00 1.200480e-01 0.000000e+00
1.054116e+00 1.088196e-01 0.000000e+00
1.159026e+00 1.200480e-01 0.000000e+00
1.058469e+00 5.448843e-02 0.000000e+00
1.163823e+00 6.010959e-02 0.000000e+00
1.058469e+00 5.448843e-02 0.000000e+00
1.163823e+00 6.010959e-02 0.000000e+00
1.059922e+00 5.190000e-12 0.000000e+00
1.165424e+00 5.706600e-12 0.000000e+00
</DataArray>
</Points>
<Cells>
<DataArray type="Int32" Name="connectivity" format="ascii">
0 1 3 2
4 5 7 6
8 9 11 10
12 13 15 14
16 17 19 18
20 21 23 22
24 25 27 26
28 29 31 30
32 33 35 34
36 37 39 38
40 41 43 42
44 45 47 46
48 49 51 50
52 53 55 54
56 57 59 58
60 61 63 62
64 65 67 66
68 69 71 70
72 73 75 74
76 77 79 78
80 81 83 82
84 85 87 86
88 89 91 90
92 93 95 94
96 97 99 98
100 101 103 102
104 105 107 106
108 109 111 110
112 113 115 114
116 117 119 118
</DataArray>
<DataArray type="Int32" Name="offsets" format="ascii">
4
8
12
16
20
24
28
32
36
40
44
48
52
56
60
64
68
72
76
80
84
88
92
96
100
104
108
112
116
120
</DataArray>
<DataArray type="UInt8" Name="types" format="ascii">
9
9
9
9
9
9
9
9
9
9
9
9
9
9
9
9
9
9
9
9
9
9
9
9
9
9
9
9
9
9
</DataArray>
</Cells>
<PointData>
<DataArray type="Float32" Name="V1" format="ascii">
1.201521e+01
9.704515e-01
1.207423e+01
1.029473e+00
1.168234e+01
1.289230e+00
1.182644e+01
1.433322e+00
1.093749e+01
2.071435e+00
1.131123e+01
2.445171e+00
9.698805e+00
3.813116e+00
1.036786e+01
4.482168e+00
9.045528e+00
5.561055e+00
9.304858e+00
5.820385e+00
8.783462e+00
6.176342e+00
8.912209e+00
6.305090e+00
8.669956e+00
6.497020e+00
8.779046e+00
6.606110e+00
8.674149e+00
6.691484e+00
8.769185e+00
6.786520e+00
8.732542e+00
6.816448e+00
8.814655e+00
6.898561e+00
8.813021e+00
6.900007e+00
8.883729e+00
6.970715e+00
8.899136e+00
6.958354e+00
8.959975e+00
7.019192e+00
8.982855e+00
7.000842e+00
9.035243e+00
7.053231e+00
9.060513e+00
7.033018e+00
9.105693e+00
7.078198e+00
9.130729e+00
7.058229e+00
9.169758e+00
7.097259e+00
9.193279e+00
7.078548e+00
9.227046e+00
7.112315e+00
9.248501e+00
7.095288e+00
9.277747e+00
7.124534e+00
9.296970e+00
7.109310e+00
9.322313e+00
7.134653e+00
9.339339e+00
7.121194e+00
9.361294e+00
7.143149e+00
9.376249e+00
7.131346e+00
9.395245e+00
7.150342e+00
9.408294e+00
7.140058e+00
9.424690e+00
7.156454e+00
9.436002e+00
7.147549e+00
9.450098e+00
7.161645e+00
9.459835e+00
7.153987e+00
9.471881e+00
7.166033e+00
9.480190e+00
7.159504e+00
9.490393e+00
7.169706e+00
9.497401e+00
7.164203e+00
9.505932e+00
7.172734e+00
9.511749e+00
7.168169e+00
9.518749e+00
7.175170e+00
9.523465e+00
7.171471e+00
9.529048e+00
7.177054e+00
9.532735e+00
7.174162e+00
9.536990e+00
7.178416e+00
9.539707e+00
7.176286e+00
9.542699e+00
7.179278e+00
9.544487e+00
7.177876e+00
9.546265e+00
7.179653e+00
9.547152e+00
7.178958e+00
9.547741e+00
7.179547e+00
</DataArray>
<DataArray type="Float32" Name="V2" format="ascii">
9.736854e-01
1.080000e+00
9.754077e-01
1.081589e+00
9.754077e-01
1.081589e+00
9.803141e-01
1.086375e+00
9.803141e-01
1.086375e+00
9.877740e-01
1.094381e+00
9.877740e-01
1.094381e+00
9.969531e-01
1.104826e+00
9.969531e-01
1.104826e+00
1.005132e+00
1.112844e+00
1.005132e+00
1.112844e+00
1.012353e+00
1.119686e+00
1.012353e+00
1.119686e+00
1.018531e+00
1.125597e+00
1.018531e+00
1.125597e+00
1.023866e+00
1.130722e+00
1.023866e+00
1.130722e+00
1.028497e+00
1.135175e+00
1.028497e+00
1.135175e+00
1.032540e+00
1.139062e+00
1.032540e+00
1.139062e+00
1.036088e+00
1.142472e+00
1.036088e+00
1.142472e+00
1.039216e+00
1.145478e+00
1.039216e+00
1.145478e+00
1.041985e+00
1.148139e+00
1.041985e+00
1.148139e+00
1.044445e+00
1.150504e+00
1.044445e+00
1.150504e+00
1.046636e+00
1.152610e+00
1.046636e+00
1.152610e+00
1.048589e+00
1.154489e+00
1.048589e+00
1.154489e+00
1.050332e+00
1.156166e+00
1.050332e+00
1.156166e+00
1.051887e+00
1.157663e+00
1.051887e+00
1.157663e+00
1.053270e+00
1.158996e+00
1.053270e+00
1.158996e+00
1.054496e+00
1.160179e+00
1.054496e+00
1.160179e+00
1.055577e+00
1.161222e+00
1.055577e+00
1.161222e+00
1.056523e+00
1.162136e+00
1.056523e+00
1.162136e+00
1.057342e+00
1.162928e+00
1.057342e+00
1.162928e+00
1.058040e+00
1.163603e+00
1.058040e+00
1.163603e+00
1.058623e+00
1.164167e+00
1.058623e+00
1.164167e+00
1.059095e+00
1.164623e+00
1.059095e+00
1.164623e+00
1.059458e+00
1.164975e+00
1.059458e+00
1.164975e+00
1.059716e+00
1.165225e+00
1.059716e+00
1.165225e+00
1.059871e+00
1.165374e+00
1.059871e+00
1.165374e+00
1.059922e+00
1.165424e+00
</DataArray>
<DataArray type="Float32" Name="V3" format="ascii">
0.000000e+00
0.000000e+00
5.536562e-03
2.041705e-03
5.536562e-03
2.041705e-03
1.034098e-02
4.050852e-03
1.034098e-02
4.050852e-03
1.372211e-02
5.800947e-03
1.372211e-02
5.800947e-03
1.577961e-02
6.392825e-03
1.577961e-02
6.392825e-03
1.692753e-02
6.836466e-03
1.692753e-02
6.836466e-03
1.718277e-02
7.624657e-03
1.718277e-02
7.624657e-03
1.710537e-02
8.496342e-03
1.710537e-02
8.496342e-03
1.685280e-02
9.288356e-03
1.685280e-02
9.288356e-03
1.649598e-02
9.929558e-03
1.649598e-02
9.929558e-03
1.606759e-02
1.039978e-02
1.606759e-02
1.039978e-02
1.558328e-02
1.070152e-02
1.558328e-02
1.070152e-02
1.505059e-02
1.084677e-02
1.505059e-02
1.084677e-02
1.447345e-02
1.085068e-02
1.447345e-02
1.085068e-02
1.385425e-02
1.072872e-02
1.385425e-02
1.072872e-02
1.319488e-02
1.049540e-02
1.319488e-02
1.049540e-02
1.249718e-02
1.016385e-02
1.249718e-02
1.016385e-02
1.176305e-02
9.745790e-03
1.176305e-02
9.745790e-03
1.099458e-02
9.251567e-03
1.099458e-02
9.251567e-03
1.019400e-02
8.690369e-03
1.019400e-02
8.690369e-03
9.363683e-03
8.070383e-03
9.363683e-03
8.070383e-03
8.506106e-03
7.398963e-03
8.506106e-03
7.398963e-03
7.623832e-03
6.682779e-03
7.623832e-03
6.682779e-03
6.719494e-03
5.927942e-03
6.719494e-03
5.927942e-03
5.795770e-03
5.140110e-03
5.795770e-03
5.140110e-03
4.855376e-03
4.324579e-03
4.855376e-03
4.324579e-03
3.901056e-03
3.486357e-03
3.901056e-03
3.486357e-03
2.935576e-03
2.630228e-03
2.935576e-03
2.630228e-03
1.961712e-03
1.760809e-03
1.961712e-03
1.760809e-03
9.822553e-04
8.825936e-04
9.822553e-04
8.825936e-04
0.000000e+00
0.000000e+00
</DataArray>
<DataArray type="Float32" Name="V4" format="ascii">
8.500000e-01
1.000000e+00
8.500000e-01
1.000000e+00
8.500000e-01
1.000000e+00
8.500000e-01
1.000000e+00
8.500000e-01
1.000000e+00
8.500000e-01
1.000000e+00
8.500000e-01
1.000000e+00
8.500000e-01
1.000000e+00
8.500000e-01
1.000000e+00
8.500000e-01
1.000000e+00
8.500000e-01
1.000000e+00
8.500000e-01
1.000000e+00
8.500000e-01
1.000000e+00
8.500000e-01
1.000000e+00
8.500000e-01
1.000000e+00
8.500000e-01
1.000000e+00
8.500000e-01
1.000000e+00
8.500000e-01
1.000000e+00
8.500000e-01
1.000000e+00
8.500000e-01
1.000000e+00
8.500000e-01
1.000000e+00
8.500000e-01
1.000000e+00
8.500000e-01
1.000000e+00
8.500000e-01
1.000000e+00
8.500000e-01
1.000000e+00
8.500000e-01
1.000000e+00
8.500000e-01
1.000000e+00
8.500000e-01
1.000000e+00
8.500000e-01
1.000000e+00
8.500000e-01
1.000000e+00
8.500000e-01
1.000000e+00
8.500000e-01
1.000000e+00
8.500000e-01
1.000000e+00
8.500000e-01
1.000000e+00
8.500000e-01
1.000000e+00
8.500000e-01
1.000000e+00
8.500000e-01
1.000000e+00
8.500000e-01
1.000000e+00
8.500000e-01
1.000000e+00
8.500000e-01
1.000000e+00
8.500000e-01
1.000000e+00
8.500000e-01
1.000000e+00
8.500000e-01
1.000000e+00
8.500000e-01
1.000000e+00
8.500000e-01
1.000000e+00
8.500000e-01
1.000000e+00
8.500000e-01
1.000000e+00
8.500000e-01
1.000000e+00
8.500000e-01
1.000000e+00
8.500000e-01
1.000000e+00
8.500000e-01
1.000000e+00
8.500000e-01
1.000000e+00
8.500000e-01
1.000000e+00
8.500000e-01
1.000000e+00
8.500000e-01
1.000000e+00
8.500000e-01
1.000000e+00
8.500000e-01
1.000000e+00
8.500000e-01
1.000000e+00
8.500000e-01
1.000000e+00
8.500000e-01
1.000000e+00
</DataArray>
<DataArray type="Float32" Name="V5" format="ascii">
0.000000e+00
0.000000e+00
5.235988e-02
5.235988e-02
5.235988e-02
5.235988e-02
1.047198e-01
1.047198e-01
1.047198e-01
1.047198e-01
1.570796e-01
1.570796e-01
1.570796e-01
1.570796e-01
2.094395e-01
2.094395e-01
2.094395e-01
2.094395e-01
2.617994e-01
2.617994e-01
2.617994e-01
2.617994e-01
3.141593e-01
3.141593e-01
3.141593e-01
3.141593e-01
3.665191e-01
3.665191e-01
3.665191e-01
3.665191e-01
4.188790e-01
4.188790e-01
4.188790e-01
4.188790e-01
4.712389e-01
4.712389e-01
4.712389e-01
4.712389e-01
5.235988e-01
5.235988e-01
5.235988e-01
5.235988e-01
5.759587e-01
5.759587e-01
5.759587e-01
5.759587e-01
6.283185e-01
6.283185e-01
6.283185e-01
6.283185e-01
6.806784e-01
6.806784e-01
6.806784e-01
6.806784e-01
7.330383e-01
7.330383e-01
7.330383e-01
7.330383e-01
7.853982e-01
7.853982e-01
7.853982e-01
7.853982e-01
8.377580e-01
8.377580e-01
8.377580e-01
8.377580e-01
8.901179e-01
8.901179e-01
8.901179e-01
8.901179e-01
9.424778e-01
9.424778e-01
9.424778e-01
9.424778e-01
9.948377e-01
9.948377e-01
9.948377e-01
9.948377e-01
1.047198e+00
1.047198e+00
1.047198e+00
1.047198e+00
1.099557e+00
1.099557e+00
1.099557e+00
1.099557e+00
1.151917e+00
1.151917e+00
1.151917e+00
1.151917e+00
1.204277e+00
1.204277e+00
1.204277e+00
1.204277e+00
1.256637e+00
1.256637e+00
1.256637e+00
1.256637e+00
1.308997e+00
1.308997e+00
1.308997e+00
1.308997e+00
1.361357e+00
1.361357e+00
1.361357e+00
1.361357e+00
1.413717e+00
1.413717e+00
1.413717e+00
1.413717e+00
1.466077e+00
1.466077e+00
1.466077e+00
1.466077e+00
1.518436e+00
1.518436e+00
1.518436e+00
1.518436e+00
1.570796e+00
1.570796e+00
</DataArray>
</PointData>
</Piece></UnstructuredGrid>
</VTKFile>
