<?xml version="1.0"?>
<VTKFile type="UnstructuredGrid" version="0.1" byte_order="LittleEndian" compressor="vtkZLibDataCompressor">
<UnstructuredGrid>
<Piece NumberOfPoints="120" NumberOfCells="30">
<Points>
<DataArray type="Float32" NumberOfComponents="3" format="ascii">
0.000000e+00 7.933709e-01 0.000000e+00
0.000000e+00 9.000000e-01 0.000000e+00
5.756617e-02 7.934330e-01 0.000000e+00
5.748776e-02 9.000000e-01 0.000000e+00
5.756617e-02 7.934330e-01 0.000000e+00
5.748776e-02 9.000000e-01 0.000000e+00
1.151251e-01 7.935971e-01 0.000000e+00
1.149941e-01 9.000000e-01 0.000000e+00
1.151251e-01 7.935971e-01 0.000000e+00
1.149941e-01 9.000000e-01 0.000000e+00
1.726611e-01 7.938792e-01 0.000000e+00
1.725504e-01 9.000000e-01 0.000000e+00
1.726611e-01 7.938792e-01 0.000000e+00
1.725504e-01 9.000000e-01 0.000000e+00
2.301444e-01 7.942918e-01 0.000000e+00
2.302127e-01 9.000000e-01 0.000000e+00
2.301444e-01 7.942918e-01 0.000000e+00
2.302127e-01 9.000000e-01 0.000000e+00
2.875107e-01 7.948492e-01 0.000000e+00
2.880833e-01 9.000000e-01 0.000000e+00
2.875107e-01 7.948492e-01 0.000000e+00
2.880833e-01 9.000000e-01 0.000000e+00
3.446281e-01 7.955507e-01 0.000000e+00
3.463313e-01 9.000000e-01 0.000000e+00
3.446281e-01 7.955507e-01 0.000000e+00
3.463313e-01 9.000000e-01 0.000000e+00
4.012390e-01 7.963250e-01 0.000000e+00
4.051892e-01 9.000000e-01 0.000000e+00
4.012390e-01 7.963250e-01 0.000000e+00
4.051892e-01 9.000000e-01 0.000000e+00
4.568790e-01 7.968282e-01 0.000000e+00
4.648508e-01 9.000000e-01 0.000000e+00
4.568790e-01 7.968282e-01 0.000000e+00
4.648508e-01 9.000000e-01 0.000000e+00
5.112131e-01 7.964827e-01 0.000000e+00
5.248467e-01 9.000000e-01 0.000000e+00
5.112131e-01 7.964827e-01 0.000000e+00
5.248467e-01 9.000000e-01 0.000000e+00
5.646595e-01 7.926518e-01 0.000000e+00
5.840749e-01 8.953870e-01 0.000000e+00
5.646595e-01 7.926518e-01 0.000000e+00
5.840749e-01 8.953870e-01 0.000000e+00
6.162648e-01 7.835887e-01 0.000000e+00
6.429659e-01 8.836019e-01 0.000000e+00
6.162648e-01 7.835887e-01 0.000000e+00
6.429659e-01 8.836019e-01 0.000000e+00
6.663572e-01 7.694864e-01 0.000000e+00
7.009694e-01 8.660796e-01 0.000000e+00
6.663572e-01 7.694864e-01 0.000000e+00
7.009694e-01 8.660796e-01 0.000000e+00
7.148718e-01 7.505225e-01 0.000000e+00
7.572390e-01 8.431036e-01 0.000000e+00
7.148718e-01 7.505225e-01 0.000000e+00
7.572390e-01 8.431036e-01 0.000000e+00
7.616226e-01 7.270886e-01 0.000000e+00
8.112510e-01 8.151871e-01 0.000000e+00
7.616226e-01 7.270886e-01 0.000000e+00
8.112510e-01 8.151871e-01 0.000000e+00
8.064013e-01 6.995539e-01 0.000000e+00
8.626652e-01 7.828295e-01 0.000000e+00
8.064013e-01 6.995539e-01 0.000000e+00
8.626652e-01 7.828295e-01 0.000000e+00
8.490124e-01 6.682830e-01 0.000000e+00
9.112640e-01 7.464978e-01 0.000000e+00
8.490124e-01 6.682830e-01 0.000000e+00
9.112640e-01 7.464978e-01 0.000000e+00
8.892822e-01 6.336221e-01 0.000000e+00
9.569000e-01 7.066114e-01 0.000000e+00
8.892822e-01 6.336221e-01 0.000000e+00
9.569000e-01 7.066114e-01 0.000000e+00
9.270598e-01 5.958964e-01 0.000000e+00
9.994675e-01 6.635444e-01 0.000000e+00
9.270598e-01 5.958964e-01 0.000000e+00
9.994675e-01 6.635444e-01 0.000000e+00
9.622160e-01 5.554099e-01 0.000000e+00
1.038885e+00 6.176324e-01 0.000000e+00
9.622160e-01 5.554099e-01 0.000000e+00
1.038885e+00 6.176324e-01 0.000000e+00
9.946395e-01 5.124467e-01 0.000000e+00
1.075086e+00 5.691797e-01 0.000000e+00
9.946395e-01 5.124467e-01 0.000000e+00
1.075086e+00 5.691797e-01 0.000000e+00
1.024235e+00 4.672739e-01 0.000000e+00
1.108012e+00 5.184663e-01 0.000000e+00
1.024235e+00 4.672739e-01 0.000000e+00
1.108012e+00 5.184663e-01 0.000000e+00
1.050919e+00 4.201443e-01 0.000000e+00
1.137612e+00 4.657533e-01 0.000000e+00
1.050919e+00 4.201443e-01 0.000000e+00
1.137612e+00 4.657533e-01 0.000000e+00
1.074622e+00 3.712987e-01 0.000000e+00
1.163842e+00 4.112877e-01 0.000000e+00
1.074622e+00 3.712987e-01 0.000000e+00
1.163842e+00 4.112877e-01 0.000000e+00
1.095283e+00 3.209685e-01 0.000000e+00
1.186660e+00 3.553056e-01 0.000000e+00
1.095283e+00 3.209685e-01 0.000000e+00
1.186660e+00 3.553056e-01 0.000000e+00
1.112850e+00 2.693773e-01 0.000000e+00
1.206031e+00 2.980351e-01 0.000000e+00
1.112850e+00 2.693773e-01 0.000000e+00
1.206031e+00 2.980351e-01 0.000000e+00
1.127280e+00 2.167431e-01 0.000000e+00
1.221923e+00 2.396981e-01 0.000000e+00
1.127280e+00 2.167431e-01 0.000000e+00
1.221923e+00 2.396981e-01 0.000000e+00
1.138540e+00 1.632792e-01 0.000000e+00
1.234310e+00 1.805126e-01 0.000000e+00
1.138540e+00 1.632792e-01 0.000000e+00
1.234310e+00 1.805126e-01 0.000000e+00
1.146601e+00 1.091959e-01 0.000000e+00
1.243173e+00 1.206929e-01 0.000000e+00
1.146601e+00 1.091959e-01 0.000000e+00
1.243173e+00 1.206929e-01 0.000000e+00
1.151445e+00 5.470070e-02 0.000000e+00
1.248497e+00 6.045171e-02 0.000000e+00
1.151445e+00 5.470070e-02 0.000000e+00
1.248497e+00 6.045171e-02 0.000000e+00
1.153061e+00 5.646070e-12 0.000000e+00
1.250272e+00 6.122070e-12 0.000000e+00
</DataArray>
</Points>
<Cells>
<DataArray type="Int32" Name="connectivity" format="ascii">
0 1 3 2
4 5 7 6
8 9 11 10
12 13 15 14
16 17 19 18
20 21 23 22
24 25 27 26
28 29 31 30
32 33 35 34
36 37 39 38
40 41 43 42
44 45 47 46
48 49 51 50
52 53 55 54
56 57 59 58
60 61 63 62
64 65 67 66
68 69 71 70
72 73 75 74
76 77 79 78
80 81 83 82
84 85 87 86
88 89 91 90
92 93 95 94
96 97 99 98
100 101 103 102
104 105 107 106
108 109 111 110
112 113 115 114
116 117 119 118
</DataArray>
<DataArray type="Int32" Name="offsets" format="ascii">
4
8
12
16
20
24
28
32
36
40
44
48
52
56
60
64
68
72
76
80
84
88
92
96
100
104
108
112
116
120
</DataArray>
<DataArray type="UInt8" Name="types" format="ascii">
9
9
9
9
9
9
9
9
9
9
9
9
9
9
9
9
9
9
9
9
9
9
9
9
9
9
9
9
9
9
</DataArray>
</Cells>
<PointData>
<DataArray type="Float32" Name="V1" format="ascii">
1.275445e+01
-3.860100e-01
1.277248e+01
-3.679820e-01
1.278882e+01
-3.801080e-01
1.283567e+01
-3.332595e-01
1.286501e+01
-3.542218e-01
1.294378e+01
-2.754474e-01
1.297132e+01
-2.967274e-01
1.308298e+01
-1.850627e-01
1.307829e+01
-1.863898e-01
1.322668e+01
-3.800059e-02
1.312642e+01
2.403363e-02
1.332346e+01
2.210807e-01
1.300486e+01
4.355758e-01
1.328337e+01
7.140880e-01
1.252980e+01
1.246996e+00
1.299187e+01
1.709069e+00
1.140657e+01
2.958236e+00
1.226267e+01
3.814328e+00
1.018970e+01
5.767504e+00
1.095588e+01
6.533687e+00
9.918118e+00
7.193339e+00
1.028392e+01
7.559138e+00
9.903969e+00
7.873935e+00
1.025878e+01
8.228747e+00
1.013335e+01
8.337204e+00
1.047189e+01
8.675746e+00
1.049143e+01
8.661615e+00
1.080569e+01
8.975878e+00
1.089806e+01
8.899554e+00
1.118350e+01
9.184990e+00
1.130994e+01
9.080438e+00
1.156550e+01
9.335992e+00
1.170349e+01
9.222640e+00
1.193002e+01
9.449171e+00
1.206704e+01
9.337564e+00
1.226639e+01
9.536914e+00
1.239567e+01
9.432476e+00
1.257006e+01
9.606867e+00
1.268827e+01
9.512100e+00
1.283997e+01
9.663795e+00
1.294573e+01
9.579583e+00
1.307687e+01
9.710719e+00
1.316989e+01
9.637085e+00
1.328240e+01
9.749591e+00
1.336296e+01
9.686135e+00
1.345853e+01
9.781702e+00
1.352719e+01
9.727850e+00
1.360727e+01
9.807929e+00
1.366467e+01
9.763067e+00
1.373047e+01
9.828875e+00
1.377724e+01
9.792425e+00
1.382978e+01
9.844964e+00
1.386648e+01
9.816422e+00
1.390655e+01
9.856487e+00
1.393365e+01
9.835443e+00
1.396185e+01
9.863638e+00
1.397972e+01
9.849781e+00
1.399647e+01
9.866531e+00
1.400534e+01
9.859655e+00
1.401090e+01
9.865210e+00
</DataArray>
<DataArray type="Float32" Name="V2" format="ascii">
7.933709e-01
9.000000e-01
7.953584e-01
9.017753e-01
7.953584e-01
9.017753e-01
8.012836e-01
9.070899e-01
8.012836e-01
9.070899e-01
8.111154e-01
9.159123e-01
8.111154e-01
9.159123e-01
8.247843e-01
9.281968e-01
8.247843e-01
9.281968e-01
8.421787e-01
9.438947e-01
8.421787e-01
9.438947e-01
8.631096e-01
9.629731e-01
8.631096e-01
9.629731e-01
8.872246e-01
9.854292e-01
8.872246e-01
9.854292e-01
9.137682e-01
1.011263e+00
9.137682e-01
1.011263e+00
9.417572e-01
1.040181e+00
9.417572e-01
1.040181e+00
9.687864e-01
1.067465e+00
9.687864e-01
1.067465e+00
9.928147e-01
1.091235e+00
9.928147e-01
1.091235e+00
1.014203e+00
1.112693e+00
1.014203e+00
1.112693e+00
1.033149e+00
1.131761e+00
1.033149e+00
1.131761e+00
1.049957e+00
1.148635e+00
1.049957e+00
1.148635e+00
1.064871e+00
1.163540e+00
1.064871e+00
1.163540e+00
1.078108e+00
1.176706e+00
1.078108e+00
1.176706e+00
1.089853e+00
1.188336e+00
1.089853e+00
1.188336e+00
1.100266e+00
1.198608e+00
1.100266e+00
1.198608e+00
1.109480e+00
1.207669e+00
1.109480e+00
1.207669e+00
1.117606e+00
1.215641e+00
1.117606e+00
1.215641e+00
1.124738e+00
1.222624e+00
1.124738e+00
1.222624e+00
1.130951e+00
1.228700e+00
1.130951e+00
1.228700e+00
1.136308e+00
1.233933e+00
1.136308e+00
1.233933e+00
1.140861e+00
1.238376e+00
1.140861e+00
1.238376e+00
1.144650e+00
1.242073e+00
1.144650e+00
1.242073e+00
1.147710e+00
1.245057e+00
1.147710e+00
1.245057e+00
1.150065e+00
1.247352e+00
1.150065e+00
1.247352e+00
1.151734e+00
1.248979e+00
1.151734e+00
1.248979e+00
1.152730e+00
1.249950e+00
1.152730e+00
1.249950e+00
1.153061e+00
1.250272e+00
</DataArray>
<DataArray type="Float32" Name="V3" format="ascii">
0.000000e+00
0.000000e+00
1.596221e-02
1.030661e-02
1.596221e-02
1.030661e-02
3.154091e-02
2.028856e-02
3.154091e-02
2.028856e-02
4.634533e-02
2.963501e-02
4.634533e-02
2.963501e-02
5.997263e-02
3.806149e-02
5.997263e-02
3.806149e-02
7.199186e-02
4.532992e-02
7.199186e-02
4.532992e-02
8.192213e-02
5.126531e-02
8.192213e-02
5.126531e-02
8.921154e-02
5.574557e-02
8.921154e-02
5.574557e-02
9.328055e-02
5.859932e-02
9.328055e-02
5.859932e-02
9.389868e-02
5.905039e-02
9.389868e-02
5.905039e-02
9.268358e-02
5.813016e-02
9.268358e-02
5.813016e-02
9.007021e-02
5.799251e-02
9.007021e-02
5.799251e-02
8.680152e-02
5.802734e-02
8.680152e-02
5.802734e-02
8.324062e-02
5.790295e-02
8.324062e-02
5.790295e-02
7.947864e-02
5.741036e-02
7.947864e-02
5.741036e-02
7.555252e-02
5.645238e-02
7.555252e-02
5.645238e-02
7.146919e-02
5.499861e-02
7.146919e-02
5.499861e-02
6.722658e-02
5.305647e-02
6.722658e-02
5.305647e-02
6.282179e-02
5.065355e-02
6.282179e-02
5.065355e-02
5.825448e-02
4.782721e-02
5.825448e-02
4.782721e-02
5.352790e-02
4.461870e-02
5.352790e-02
4.461870e-02
4.864869e-02
4.106992e-02
4.864869e-02
4.106992e-02
4.362640e-02
3.722179e-02
4.362640e-02
3.722179e-02
3.847292e-02
3.311352e-02
3.847292e-02
3.311352e-02
3.320189e-02
2.878242e-02
3.320189e-02
2.878242e-02
2.782829e-02
2.426393e-02
2.782829e-02
2.426393e-02
2.236805e-02
1.959182e-02
2.236805e-02
1.959182e-02
1.683783e-02
1.479849e-02
1.683783e-02
1.479849e-02
1.125474e-02
9.915212e-03
1.125474e-02
9.915212e-03
5.636246e-03
4.972417e-03
5.636246e-03
4.972417e-03
0.000000e+00
0.000000e+00
</DataArray>
<DataArray type="Float32" Name="V4" format="ascii">
8.500000e-01
1.000000e+00
8.500000e-01
1.000000e+00
8.500000e-01
1.000000e+00
8.500000e-01
1.000000e+00
8.500000e-01
1.000000e+00
8.500000e-01
1.000000e+00
8.500000e-01
1.000000e+00
8.500000e-01
1.000000e+00
8.500000e-01
1.000000e+00
8.500000e-01
1.000000e+00
8.500000e-01
1.000000e+00
8.500000e-01
1.000000e+00
8.500000e-01
1.000000e+00
8.500000e-01
1.000000e+00
8.500000e-01
1.000000e+00
8.500000e-01
1.000000e+00
8.500000e-01
1.000000e+00
8.500000e-01
1.000000e+00
8.500000e-01
1.000000e+00
8.500000e-01
1.000000e+00
8.500000e-01
1.000000e+00
8.500000e-01
1.000000e+00
8.500000e-01
1.000000e+00
8.500000e-01
1.000000e+00
8.500000e-01
1.000000e+00
8.500000e-01
1.000000e+00
8.500000e-01
1.000000e+00
8.500000e-01
1.000000e+00
8.500000e-01
1.000000e+00
8.500000e-01
1.000000e+00
8.500000e-01
1.000000e+00
8.500000e-01
1.000000e+00
8.500000e-01
1.000000e+00
8.500000e-01
1.000000e+00
8.500000e-01
1.000000e+00
8.500000e-01
1.000000e+00
8.500000e-01
1.000000e+00
8.500000e-01
1.000000e+00
8.500000e-01
1.000000e+00
8.500000e-01
1.000000e+00
8.500000e-01
1.000000e+00
8.500000e-01
1.000000e+00
8.500000e-01
1.000000e+00
8.500000e-01
1.000000e+00
8.500000e-01
1.000000e+00
8.500000e-01
1.000000e+00
8.500000e-01
1.000000e+00
8.500000e-01
1.000000e+00
8.500000e-01
1.000000e+00
8.500000e-01
1.000000e+00
8.500000e-01
1.000000e+00
8.500000e-01
1.000000e+00
8.500000e-01
1.000000e+00
8.500000e-01
1.000000e+00
8.500000e-01
1.000000e+00
8.500000e-01
1.000000e+00
8.500000e-01
1.000000e+00
8.500000e-01
1.000000e+00
8.500000e-01
1.000000e+00
8.500000e-01
1.000000e+00
</DataArray>
<DataArray type="Float32" Name="V5" format="ascii">
0.000000e+00
0.000000e+00
5.235988e-02
5.235988e-02
5.235988e-02
5.235988e-02
1.047198e-01
1.047198e-01
1.047198e-01
1.047198e-01
1.570796e-01
1.570796e-01
1.570796e-01
1.570796e-01
2.094395e-01
2.094395e-01
2.094395e-01
2.094395e-01
2.617994e-01
2.617994e-01
2.617994e-01
2.617994e-01
3.141593e-01
3.141593e-01
3.141593e-01
3.141593e-01
3.665191e-01
3.665191e-01
3.665191e-01
3.665191e-01
4.188790e-01
4.188790e-01
4.188790e-01
4.188790e-01
4.712389e-01
4.712389e-01
4.712389e-01
4.712389e-01
5.235988e-01
5.235988e-01
5.235988e-01
5.235988e-01
5.759587e-01
5.759587e-01
5.759587e-01
5.759587e-01
6.283185e-01
6.283185e-01
6.283185e-01
6.283185e-01
6.806784e-01
6.806784e-01
6.806784e-01
6.806784e-01
7.330383e-01
7.330383e-01
7.330383e-01
7.330383e-01
7.853982e-01
7.853982e-01
7.853982e-01
7.853982e-01
8.377580e-01
8.377580e-01
8.377580e-01
8.377580e-01
8.901179e-01
8.901179e-01
8.901179e-01
8.901179e-01
9.424778e-01
9.424778e-01
9.424778e-01
9.424778e-01
9.948377e-01
9.948377e-01
9.948377e-01
9.948377e-01
1.047198e+00
1.047198e+00
1.047198e+00
1.047198e+00
1.099557e+00
1.099557e+00
1.099557e+00
1.099557e+00
1.151917e+00
1.151917e+00
1.151917e+00
1.151917e+00
1.204277e+00
1.204277e+00
1.204277e+00
1.204277e+00
1.256637e+00
1.256637e+00
1.256637e+00
1.256637e+00
1.308997e+00
1.308997e+00
1.308997e+00
1.308997e+00
1.361357e+00
1.361357e+00
1.361357e+00
1.361357e+00
1.413717e+00
1.413717e+00
1.413717e+00
1.413717e+00
1.466077e+00
1.466077e+00
1.466077e+00
1.466077e+00
1.518436e+00
1.518436e+00
1.518436e+00
1.518436e+00
1.570796e+00
1.570796e+00
</DataArray>
</PointData>
</Piece></UnstructuredGrid>
</VTKFile>
