<?xml version="1.0"?>
<VTKFile type="UnstructuredGrid" version="0.1" byte_order="LittleEndian" compressor="vtkZLibDataCompressor">
<UnstructuredGrid>
<Piece NumberOfPoints="120" NumberOfCells="30">
<Points>
<DataArray type="Float32" NumberOfComponents="3" format="ascii">
0.000000e+00 8.721284e-01 0.000000e+00
0.000000e+00 9.800000e-01 0.000000e+00
5.714199e-02 8.722136e-01 0.000000e+00
5.726993e-02 9.800000e-01 0.000000e+00
5.714199e-02 8.722136e-01 0.000000e+00
5.726993e-02 9.800000e-01 0.000000e+00
1.142330e-01 8.724429e-01 0.000000e+00
1.146352e-01 9.800000e-01 0.000000e+00
1.142330e-01 8.724429e-01 0.000000e+00
1.146352e-01 9.800000e-01 0.000000e+00
1.711897e-01 8.728317e-01 0.000000e+00
1.722248e-01 9.800000e-01 0.000000e+00
1.711897e-01 8.728317e-01 0.000000e+00
1.722248e-01 9.800000e-01 0.000000e+00
2.278571e-01 8.733594e-01 0.000000e+00
2.302182e-01 9.800000e-01 0.000000e+00
2.278571e-01 8.733594e-01 0.000000e+00
2.302182e-01 9.800000e-01 0.000000e+00
2.839469e-01 8.739028e-01 0.000000e+00
2.888256e-01 9.800000e-01 0.000000e+00
2.839469e-01 8.739028e-01 0.000000e+00
2.888256e-01 9.800000e-01 0.000000e+00
3.389893e-01 8.739833e-01 0.000000e+00
3.481333e-01 9.800000e-01 0.000000e+00
3.389893e-01 8.739833e-01 0.000000e+00
3.481333e-01 9.800000e-01 0.000000e+00
3.930189e-01 8.729669e-01 0.000000e+00
4.073744e-01 9.796542e-01 0.000000e+00
3.930189e-01 8.729669e-01 0.000000e+00
4.073744e-01 9.796542e-01 0.000000e+00
4.460553e-01 8.677547e-01 0.000000e+00
4.660846e-01 9.732095e-01 0.000000e+00
4.460553e-01 8.677547e-01 0.000000e+00
4.660846e-01 9.732095e-01 0.000000e+00
4.975794e-01 8.582168e-01 0.000000e+00
5.246071e-01 9.612830e-01 0.000000e+00
4.975794e-01 8.582168e-01 0.000000e+00
5.246071e-01 9.612830e-01 0.000000e+00
5.478886e-01 8.441545e-01 0.000000e+00
5.822671e-01 9.442861e-01 0.000000e+00
5.478886e-01 8.441545e-01 0.000000e+00
5.822671e-01 9.442861e-01 0.000000e+00
5.969090e-01 8.258595e-01 0.000000e+00
6.384820e-01 9.225779e-01 0.000000e+00
5.969090e-01 8.258595e-01 0.000000e+00
6.384820e-01 9.225779e-01 0.000000e+00
6.444786e-01 8.036162e-01 0.000000e+00
6.928522e-01 8.965340e-01 0.000000e+00
6.444786e-01 8.036162e-01 0.000000e+00
6.928522e-01 8.965340e-01 0.000000e+00
6.904179e-01 7.777115e-01 0.000000e+00
7.451106e-01 8.665246e-01 0.000000e+00
6.904179e-01 7.777115e-01 0.000000e+00
7.451106e-01 8.665246e-01 0.000000e+00
7.345522e-01 7.484209e-01 0.000000e+00
7.950670e-01 8.328903e-01 0.000000e+00
7.345522e-01 7.484209e-01 0.000000e+00
7.950670e-01 8.328903e-01 0.000000e+00
7.767203e-01 7.160060e-01 0.000000e+00
8.425757e-01 7.959393e-01 0.000000e+00
7.767203e-01 7.160060e-01 0.000000e+00
8.425757e-01 7.959393e-01 0.000000e+00
8.167761e-01 6.807133e-01 0.000000e+00
8.875180e-01 7.559505e-01 0.000000e+00
8.167761e-01 6.807133e-01 0.000000e+00
8.875180e-01 7.559505e-01 0.000000e+00
8.545884e-01 6.427756e-01 0.000000e+00
9.297916e-01 7.131791e-01 0.000000e+00
8.545884e-01 6.427756e-01 0.000000e+00
9.297916e-01 7.131791e-01 0.000000e+00
8.900392e-01 6.024133e-01 0.000000e+00
9.693050e-01 6.678617e-01 0.000000e+00
8.900392e-01 6.024133e-01 0.000000e+00
9.693050e-01 6.678617e-01 0.000000e+00
9.230229e-01 5.598366e-01 0.000000e+00
1.005975e+00 6.202206e-01 0.000000e+00
9.230229e-01 5.598366e-01 0.000000e+00
1.005975e+00 6.202206e-01 0.000000e+00
9.534444e-01 5.152476e-01 0.000000e+00
1.039724e+00 5.704678e-01 0.000000e+00
9.534444e-01 5.152476e-01 0.000000e+00
1.039724e+00 5.704678e-01 0.000000e+00
9.812186e-01 4.688419e-01 0.000000e+00
1.070482e+00 5.188076e-01 0.000000e+00
9.812186e-01 4.688419e-01 0.000000e+00
1.070482e+00 5.188076e-01 0.000000e+00
1.006270e+00 4.208100e-01 0.000000e+00
1.098183e+00 4.654387e-01 0.000000e+00
1.006270e+00 4.208100e-01 0.000000e+00
1.098183e+00 4.654387e-01 0.000000e+00
1.028530e+00 3.713388e-01 0.000000e+00
1.122768e+00 4.105563e-01 0.000000e+00
1.028530e+00 3.713388e-01 0.000000e+00
1.122768e+00 4.105563e-01 0.000000e+00
1.047941e+00 3.206121e-01 0.000000e+00
1.144186e+00 3.543526e-01 0.000000e+00
1.047941e+00 3.206121e-01 0.000000e+00
1.144186e+00 3.543526e-01 0.000000e+00
1.064451e+00 2.688121e-01 0.000000e+00
1.162388e+00 2.970184e-01 0.000000e+00
1.064451e+00 2.688121e-01 0.000000e+00
1.162388e+00 2.970184e-01 0.000000e+00
1.078018e+00 2.161191e-01 0.000000e+00
1.177336e+00 2.387430e-01 0.000000e+00
1.078018e+00 2.161191e-01 0.000000e+00
1.177336e+00 2.387430e-01 0.000000e+00
1.088606e+00 1.627128e-01 0.000000e+00
1.188997e+00 1.797152e-01 0.000000e+00
1.088606e+00 1.627128e-01 0.000000e+00
1.188997e+00 1.797152e-01 0.000000e+00
1.096189e+00 1.087720e-01 0.000000e+00
1.197344e+00 1.201234e-01 0.000000e+00
1.096189e+00 1.087720e-01 0.000000e+00
1.197344e+00 1.201234e-01 0.000000e+00
1.100746e+00 5.447501e-02 0.000000e+00
1.202360e+00 6.015568e-02 0.000000e+00
1.100746e+00 5.447501e-02 0.000000e+00
1.202360e+00 6.015568e-02 0.000000e+00
1.102267e+00 5.397350e-12 0.000000e+00
1.204033e+00 5.895660e-12 0.000000e+00
</DataArray>
</Points>
<Cells>
<DataArray type="Int32" Name="connectivity" format="ascii">
0 1 3 2
4 5 7 6
8 9 11 10
12 13 15 14
16 17 19 18
20 21 23 22
24 25 27 26
28 29 31 30
32 33 35 34
36 37 39 38
40 41 43 42
44 45 47 46
48 49 51 50
52 53 55 54
56 57 59 58
60 61 63 62
64 65 67 66
68 69 71 70
72 73 75 74
76 77 79 78
80 81 83 82
84 85 87 86
88 89 91 90
92 93 95 94
96 97 99 98
100 101 103 102
104 105 107 106
108 109 111 110
112 113 115 114
116 117 119 118
</DataArray>
<DataArray type="Int32" Name="offsets" format="ascii">
4
8
12
16
20
24
28
32
36
40
44
48
52
56
60
64
68
72
76
80
84
88
92
96
100
104
108
112
116
120
</DataArray>
<DataArray type="UInt8" Name="types" format="ascii">
9
9
9
9
9
9
9
9
9
9
9
9
9
9
9
9
9
9
9
9
9
9
9
9
9
9
9
9
9
9
</DataArray>
</Cells>
<PointData>
<DataArray type="Float32" Name="V1" format="ascii">
1.237838e+01
-1.301668e-01
1.239540e+01
-1.131480e-01
1.237073e+01
-9.914605e-02
1.241256e+01
-5.731147e-02
1.233819e+01
-9.215725e-03
1.241322e+01
6.581667e-02
1.222118e+01
1.942004e-01
1.234438e+01
3.173993e-01
1.190685e+01
6.213919e-01
1.212029e+01
8.348317e-01
1.122116e+01
1.484109e+00
1.165497e+01
1.917921e+00
9.941492e+00
3.341895e+00
1.074537e+01
4.145769e+00
9.120093e+00
5.564410e+00
9.541381e+00
5.985697e+00
8.857440e+00
6.455179e+00
9.106746e+00
6.704485e+00
8.807267e+00
6.949259e+00
9.038654e+00
7.180645e+00
8.932442e+00
7.270997e+00
9.146969e+00
7.485524e+00
9.140203e+00
7.492223e+00
9.334513e+00
7.686533e+00
9.378920e+00
7.650262e+00
9.552253e+00
7.823595e+00
9.620505e+00
7.767651e+00
9.773648e+00
7.920793e+00
9.850580e+00
7.858027e+00
9.985087e+00
7.992534e+00
1.006242e+01
7.929826e+00
1.018011e+01
8.047519e+00
1.025352e+01
7.988352e+00
1.035622e+01
8.091052e+00
1.042364e+01
8.037012e+00
1.051304e+01
8.126412e+00
1.057367e+01
8.078051e+00
1.065128e+01
8.155664e+00
1.070502e+01
8.112991e+00
1.077217e+01
8.180140e+00
1.081924e+01
8.142897e+00
1.087707e+01
8.200722e+00
1.091787e+01
8.168540e+00
1.096735e+01
8.218012e+00
1.100233e+01
8.190495e+00
1.104427e+01
8.232434e+00
1.107387e+01
8.209203e+00
1.110896e+01
8.244293e+00
1.113358e+01
8.225007e+00
1.116238e+01
8.253813e+00
1.118237e+01
8.238180e+00
1.120535e+01
8.261159e+00
1.122099e+01
8.248936e+00
1.123851e+01
8.266450e+00
1.125004e+01
8.257446e+00
1.126236e+01
8.269767e+00
1.126996e+01
8.263842e+00
1.127727e+01
8.271160e+00
1.128104e+01
8.268220e+00
1.128347e+01
8.270647e+00
</DataArray>
<DataArray type="Float32" Name="V2" format="ascii">
8.721284e-01
9.800000e-01
8.740088e-01
9.816542e-01
8.740088e-01
9.816542e-01
8.796042e-01
9.866141e-01
8.796042e-01
9.866141e-01
8.888657e-01
9.948765e-01
8.888657e-01
9.948765e-01
9.016486e-01
1.006450e+00
9.016486e-01
1.006450e+00
9.176161e-01
1.021361e+00
9.176161e-01
1.021361e+00
9.359610e-01
1.039614e+00
9.359610e-01
1.039614e+00
9.558302e-01
1.060576e+00
9.558302e-01
1.060576e+00
9.741604e-01
1.078645e+00
9.741604e-01
1.078645e+00
9.905731e-01
1.094676e+00
9.905731e-01
1.094676e+00
1.005004e+00
1.108909e+00
1.005004e+00
1.108909e+00
1.017724e+00
1.121481e+00
1.017724e+00
1.121481e+00
1.028954e+00
1.132560e+00
1.028954e+00
1.132560e+00
1.038889e+00
1.142329e+00
1.038889e+00
1.142329e+00
1.047697e+00
1.150962e+00
1.047697e+00
1.150962e+00
1.055517e+00
1.158605e+00
1.055517e+00
1.158605e+00
1.062469e+00
1.165384e+00
1.062469e+00
1.165384e+00
1.068652e+00
1.171402e+00
1.068652e+00
1.171402e+00
1.074146e+00
1.176743e+00
1.074146e+00
1.176743e+00
1.079021e+00
1.181478e+00
1.079021e+00
1.181478e+00
1.083331e+00
1.185661e+00
1.083331e+00
1.185661e+00
1.087122e+00
1.189340e+00
1.087122e+00
1.189340e+00
1.090432e+00
1.192551e+00
1.090432e+00
1.192551e+00
1.093291e+00
1.195325e+00
1.093291e+00
1.195325e+00
1.095725e+00
1.197686e+00
1.095725e+00
1.197686e+00
1.097754e+00
1.199655e+00
1.097754e+00
1.199655e+00
1.099394e+00
1.201246e+00
1.099394e+00
1.201246e+00
1.100658e+00
1.202472e+00
1.100658e+00
1.202472e+00
1.101554e+00
1.203341e+00
1.101554e+00
1.203341e+00
1.102089e+00
1.203860e+00
1.102089e+00
1.203860e+00
1.102267e+00
1.204033e+00
</DataArray>
<DataArray type="Float32" Name="V3" format="ascii">
0.000000e+00
0.000000e+00
1.141554e-02
5.902210e-03
1.141554e-02
5.902210e-03
2.241209e-02
1.156936e-02
2.241209e-02
1.156936e-02
3.254112e-02
1.679865e-02
3.254112e-02
1.679865e-02
4.129620e-02
2.143388e-02
4.129620e-02
2.143388e-02
4.808900e-02
2.534140e-02
4.808900e-02
2.534140e-02
5.232228e-02
2.825776e-02
5.232228e-02
2.825776e-02
5.407141e-02
2.924008e-02
5.407141e-02
2.924008e-02
5.454418e-02
2.994948e-02
5.454418e-02
2.994948e-02
5.372420e-02
3.101499e-02
5.372420e-02
3.101499e-02
5.240817e-02
3.211505e-02
5.240817e-02
3.211505e-02
5.081472e-02
3.300415e-02
5.081472e-02
3.300415e-02
4.904039e-02
3.355975e-02
4.904039e-02
3.355975e-02
4.712576e-02
3.373812e-02
4.712576e-02
3.373812e-02
4.508734e-02
3.353749e-02
4.508734e-02
3.353749e-02
4.293153e-02
3.297692e-02
4.293153e-02
3.297692e-02
4.066134e-02
3.208477e-02
4.066134e-02
3.208477e-02
3.827944e-02
3.089254e-02
3.827944e-02
3.089254e-02
3.578936e-02
2.943171e-02
3.578936e-02
2.943171e-02
3.319581e-02
2.773232e-02
3.319581e-02
2.773232e-02
3.050465e-02
2.582232e-02
3.050465e-02
2.582232e-02
2.772271e-02
2.372754e-02
2.772271e-02
2.372754e-02
2.485760e-02
2.147173e-02
2.485760e-02
2.147173e-02
2.191756e-02
1.907689e-02
2.191756e-02
1.907689e-02
1.891125e-02
1.656341e-02
1.891125e-02
1.656341e-02
1.584768e-02
1.395043e-02
1.584768e-02
1.395043e-02
1.273611e-02
1.125602e-02
1.273611e-02
1.125602e-02
9.585974e-03
8.497393e-03
9.585974e-03
8.497393e-03
6.406812e-03
5.691150e-03
6.406812e-03
5.691150e-03
3.208259e-03
2.853412e-03
3.208259e-03
2.853412e-03
0.000000e+00
0.000000e+00
</DataArray>
<DataArray type="Float32" Name="V4" format="ascii">
8.500000e-01
1.000000e+00
8.500000e-01
1.000000e+00
8.500000e-01
1.000000e+00
8.500000e-01
1.000000e+00
8.500000e-01
1.000000e+00
8.500000e-01
1.000000e+00
8.500000e-01
1.000000e+00
8.500000e-01
1.000000e+00
8.500000e-01
1.000000e+00
8.500000e-01
1.000000e+00
8.500000e-01
1.000000e+00
8.500000e-01
1.000000e+00
8.500000e-01
1.000000e+00
8.500000e-01
1.000000e+00
8.500000e-01
1.000000e+00
8.500000e-01
1.000000e+00
8.500000e-01
1.000000e+00
8.500000e-01
1.000000e+00
8.500000e-01
1.000000e+00
8.500000e-01
1.000000e+00
8.500000e-01
1.000000e+00
8.500000e-01
1.000000e+00
8.500000e-01
1.000000e+00
8.500000e-01
1.000000e+00
8.500000e-01
1.000000e+00
8.500000e-01
1.000000e+00
8.500000e-01
1.000000e+00
8.500000e-01
1.000000e+00
8.500000e-01
1.000000e+00
8.500000e-01
1.000000e+00
8.500000e-01
1.000000e+00
8.500000e-01
1.000000e+00
8.500000e-01
1.000000e+00
8.500000e-01
1.000000e+00
8.500000e-01
1.000000e+00
8.500000e-01
1.000000e+00
8.500000e-01
1.000000e+00
8.500000e-01
1.000000e+00
8.500000e-01
1.000000e+00
8.500000e-01
1.000000e+00
8.500000e-01
1.000000e+00
8.500000e-01
1.000000e+00
8.500000e-01
1.000000e+00
8.500000e-01
1.000000e+00
8.500000e-01
1.000000e+00
8.500000e-01
1.000000e+00
8.500000e-01
1.000000e+00
8.500000e-01
1.000000e+00
8.500000e-01
1.000000e+00
8.500000e-01
1.000000e+00
8.500000e-01
1.000000e+00
8.500000e-01
1.000000e+00
8.500000e-01
1.000000e+00
8.500000e-01
1.000000e+00
8.500000e-01
1.000000e+00
8.500000e-01
1.000000e+00
8.500000e-01
1.000000e+00
8.500000e-01
1.000000e+00
8.500000e-01
1.000000e+00
8.500000e-01
1.000000e+00
</DataArray>
<DataArray type="Float32" Name="V5" format="ascii">
0.000000e+00
0.000000e+00
5.235988e-02
5.235988e-02
5.235988e-02
5.235988e-02
1.047198e-01
1.047198e-01
1.047198e-01
1.047198e-01
1.570796e-01
1.570796e-01
1.570796e-01
1.570796e-01
2.094395e-01
2.094395e-01
2.094395e-01
2.094395e-01
2.617994e-01
2.617994e-01
2.617994e-01
2.617994e-01
3.141593e-01
3.141593e-01
3.141593e-01
3.141593e-01
3.665191e-01
3.665191e-01
3.665191e-01
3.665191e-01
4.188790e-01
4.188790e-01
4.188790e-01
4.188790e-01
4.712389e-01
4.712389e-01
4.712389e-01
4.712389e-01
5.235988e-01
5.235988e-01
5.235988e-01
5.235988e-01
5.759587e-01
5.759587e-01
5.759587e-01
5.759587e-01
6.283185e-01
6.283185e-01
6.283185e-01
6.283185e-01
6.806784e-01
6.806784e-01
6.806784e-01
6.806784e-01
7.330383e-01
7.330383e-01
7.330383e-01
7.330383e-01
7.853982e-01
7.853982e-01
7.853982e-01
7.853982e-01
8.377580e-01
8.377580e-01
8.377580e-01
8.377580e-01
8.901179e-01
8.901179e-01
8.901179e-01
8.901179e-01
9.424778e-01
9.424778e-01
9.424778e-01
9.424778e-01
9.948377e-01
9.948377e-01
9.948377e-01
9.948377e-01
1.047198e+00
1.047198e+00
1.047198e+00
1.047198e+00
1.099557e+00
1.099557e+00
1.099557e+00
1.099557e+00
1.151917e+00
1.151917e+00
1.151917e+00
1.151917e+00
1.204277e+00
1.204277e+00
1.204277e+00
1.204277e+00
1.256637e+00
1.256637e+00
1.256637e+00
1.256637e+00
1.308997e+00
1.308997e+00
1.308997e+00
1.308997e+00
1.361357e+00
1.361357e+00
1.361357e+00
1.361357e+00
1.413717e+00
1.413717e+00
1.413717e+00
1.413717e+00
1.466077e+00
1.466077e+00
1.466077e+00
1.466077e+00
1.518436e+00
1.518436e+00
1.518436e+00
1.518436e+00
1.570796e+00
1.570796e+00
</DataArray>
</PointData>
</Piece></UnstructuredGrid>
</VTKFile>
