<?xml version="1.0"?>
<VTKFile type="UnstructuredGrid" version="0.1" byte_order="LittleEndian" compressor="vtkZLibDataCompressor">
<UnstructuredGrid>
<Piece NumberOfPoints="120" NumberOfCells="30">
<Points>
<DataArray type="Float32" NumberOfComponents="3" format="ascii">
0.000000e+00 8.773495e-01 0.000000e+00
0.000000e+00 1.020000e+00 0.000000e+00
4.591693e-02 8.761472e-01 0.000000e+00
5.338267e-02 1.018602e+00 0.000000e+00
4.591693e-02 8.761472e-01 0.000000e+00
5.338267e-02 1.018602e+00 0.000000e+00
9.170800e-02 8.725433e-01 0.000000e+00
1.066190e-01 1.014412e+00 0.000000e+00
9.170800e-02 8.725433e-01 0.000000e+00
1.066190e-01 1.014412e+00 0.000000e+00
1.372477e-01 8.665479e-01 0.000000e+00
1.595632e-01 1.007442e+00 0.000000e+00
1.372477e-01 8.665479e-01 0.000000e+00
1.595632e-01 1.007442e+00 0.000000e+00
1.824112e-01 8.581774e-01 0.000000e+00
2.120699e-01 9.977105e-01 0.000000e+00
1.824112e-01 8.581774e-01 0.000000e+00
2.120699e-01 9.977105e-01 0.000000e+00
2.270748e-01 8.474546e-01 0.000000e+00
2.639954e-01 9.852443e-01 0.000000e+00
2.270748e-01 8.474546e-01 0.000000e+00
2.639954e-01 9.852443e-01 0.000000e+00
2.711159e-01 8.344090e-01 0.000000e+00
3.151973e-01 9.700776e-01 0.000000e+00
2.711159e-01 8.344090e-01 0.000000e+00
3.151973e-01 9.700776e-01 0.000000e+00
3.144140e-01 8.190764e-01 0.000000e+00
3.655353e-01 9.522520e-01 0.000000e+00
3.144140e-01 8.190764e-01 0.000000e+00
3.655353e-01 9.522520e-01 0.000000e+00
3.568502e-01 8.014987e-01 0.000000e+00
4.148714e-01 9.318164e-01 0.000000e+00
3.568502e-01 8.014987e-01 0.000000e+00
4.148714e-01 9.318164e-01 0.000000e+00
3.983084e-01 7.817242e-01 0.000000e+00
4.630703e-01 9.088266e-01 0.000000e+00
3.983084e-01 7.817242e-01 0.000000e+00
4.630703e-01 9.088266e-01 0.000000e+00
4.386748e-01 7.598070e-01 0.000000e+00
5.100000e-01 8.833459e-01 0.000000e+00
4.386748e-01 7.598070e-01 0.000000e+00
5.100000e-01 8.833459e-01 0.000000e+00
4.778388e-01 7.358072e-01 0.000000e+00
5.555318e-01 8.554440e-01 0.000000e+00
4.778388e-01 7.358072e-01 0.000000e+00
5.555318e-01 8.554440e-01 0.000000e+00
5.156931e-01 7.097907e-01 0.000000e+00
5.995409e-01 8.251973e-01 0.000000e+00
5.156931e-01 7.097907e-01 0.000000e+00
5.995409e-01 8.251973e-01 0.000000e+00
5.521340e-01 6.818287e-01 0.000000e+00
6.419068e-01 7.926889e-01 0.000000e+00
5.521340e-01 6.818287e-01 0.000000e+00
6.419068e-01 7.926889e-01 0.000000e+00
5.870614e-01 6.519978e-01 0.000000e+00
6.825132e-01 7.580077e-01 0.000000e+00
5.870614e-01 6.519978e-01 0.000000e+00
6.825132e-01 7.580077e-01 0.000000e+00
6.203798e-01 6.203798e-01 0.000000e+00
7.212489e-01 7.212489e-01 0.000000e+00
6.203798e-01 6.203798e-01 0.000000e+00
7.212489e-01 7.212489e-01 0.000000e+00
6.519978e-01 5.870614e-01 0.000000e+00
7.580077e-01 6.825132e-01 0.000000e+00
6.519978e-01 5.870614e-01 0.000000e+00
7.580077e-01 6.825132e-01 0.000000e+00
6.818287e-01 5.521340e-01 0.000000e+00
7.926889e-01 6.419068e-01 0.000000e+00
6.818287e-01 5.521340e-01 0.000000e+00
7.926889e-01 6.419068e-01 0.000000e+00
7.097907e-01 5.156931e-01 0.000000e+00
8.251973e-01 5.995409e-01 0.000000e+00
7.097907e-01 5.156931e-01 0.000000e+00
8.251973e-01 5.995409e-01 0.000000e+00
7.358072e-01 4.778388e-01 0.000000e+00
8.554440e-01 5.555318e-01 0.000000e+00
7.358072e-01 4.778388e-01 0.000000e+00
8.554440e-01 5.555318e-01 0.000000e+00
7.598070e-01 4.386748e-01 0.000000e+00
8.833459e-01 5.100000e-01 0.000000e+00
7.598070e-01 4.386748e-01 0.000000e+00
8.833459e-01 5.100000e-01 0.000000e+00
7.817242e-01 3.983084e-01 0.000000e+00
9.088266e-01 4.630703e-01 0.000000e+00
7.817242e-01 3.983084e-01 0.000000e+00
9.088266e-01 4.630703e-01 0.000000e+00
8.014987e-01 3.568502e-01 0.000000e+00
9.318164e-01 4.148714e-01 0.000000e+00
8.014987e-01 3.568502e-01 0.000000e+00
9.318164e-01 4.148714e-01 0.000000e+00
8.190764e-01 3.144140e-01 0.000000e+00
9.522520e-01 3.655353e-01 0.000000e+00
8.190764e-01 3.144140e-01 0.000000e+00
9.522520e-01 3.655353e-01 0.000000e+00
8.344090e-01 2.711159e-01 0.000000e+00
9.700776e-01 3.151973e-01 0.000000e+00
8.344090e-01 2.711159e-01 0.000000e+00
9.700776e-01 3.151973e-01 0.000000e+00
8.474546e-01 2.270748e-01 0.000000e+00
9.852443e-01 2.639954e-01 0.000000e+00
8.474546e-01 2.270748e-01 0.000000e+00
9.852443e-01 2.639954e-01 0.000000e+00
8.581774e-01 1.824112e-01 0.000000e+00
9.977105e-01 2.120699e-01 0.000000e+00
8.581774e-01 1.824112e-01 0.000000e+00
9.977105e-01 2.120699e-01 0.000000e+00
8.665479e-01 1.372477e-01 0.000000e+00
1.007442e+00 1.595632e-01 0.000000e+00
8.665479e-01 1.372477e-01 0.000000e+00
1.007442e+00 1.595632e-01 0.000000e+00
8.725433e-01 9.170800e-02 0.000000e+00
1.014412e+00 1.066190e-01 0.000000e+00
8.725433e-01 9.170800e-02 0.000000e+00
1.014412e+00 1.066190e-01 0.000000e+00
8.761472e-01 4.591693e-02 0.000000e+00
1.018602e+00 5.338267e-02 0.000000e+00
8.761472e-01 4.591693e-02 0.000000e+00
1.018602e+00 5.338267e-02 0.000000e+00
8.773495e-01 4.296020e-12 0.000000e+00
1.020000e+00 4.994520e-12 0.000000e+00
</DataArray>
</Points>
<Cells>
<DataArray type="Int32" Name="connectivity" format="ascii">
0 1 3 2
4 5 7 6
8 9 11 10
12 13 15 14
16 17 19 18
20 21 23 22
24 25 27 26
28 29 31 30
32 33 35 34
36 37 39 38
40 41 43 42
44 45 47 46
48 49 51 50
52 53 55 54
56 57 59 58
60 61 63 62
64 65 67 66
68 69 71 70
72 73 75 74
76 77 79 78
80 81 83 82
84 85 87 86
88 89 91 90
92 93 95 94
96 97 99 98
100 101 103 102
104 105 107 106
108 109 111 110
112 113 115 114
116 117 119 118
</DataArray>
<DataArray type="Int32" Name="offsets" format="ascii">
4
8
12
16
20
24
28
32
36
40
44
48
52
56
60
64
68
72
76
80
84
88
92
96
100
104
108
112
116
120
</DataArray>
<DataArray type="UInt8" Name="types" format="ascii">
9
9
9
9
9
9
9
9
9
9
9
9
9
9
9
9
9
9
9
9
9
9
9
9
9
9
9
9
9
9
</DataArray>
</Cells>
<PointData>
<DataArray type="Float32" Name="V1" format="ascii">
9.482086e-01
9.336164e-01
9.482086e-01
9.336164e-01
9.482086e-01
9.336164e-01
9.482086e-01
9.336164e-01
9.482086e-01
9.336164e-01
9.482086e-01
9.336164e-01
9.482086e-01
9.336164e-01
9.482086e-01
9.336164e-01
9.482086e-01
9.336164e-01
9.482086e-01
9.336164e-01
9.482086e-01
9.336164e-01
9.482086e-01
9.336164e-01
9.482086e-01
9.336164e-01
9.482086e-01
9.336164e-01
9.482086e-01
9.336164e-01
9.482086e-01
9.336164e-01
9.482086e-01
9.336164e-01
9.482086e-01
9.336164e-01
9.482086e-01
9.336164e-01
9.482086e-01
9.336164e-01
9.482086e-01
9.336164e-01
9.482086e-01
9.336164e-01
9.482086e-01
9.336164e-01
9.482086e-01
9.336164e-01
9.482086e-01
9.336164e-01
9.482086e-01
9.336164e-01
9.482086e-01
9.336164e-01
9.482086e-01
9.336164e-01
9.482086e-01
9.336164e-01
9.482086e-01
9.336164e-01
9.482086e-01
9.336164e-01
9.482086e-01
9.336164e-01
9.482086e-01
9.336164e-01
9.482086e-01
9.336164e-01
9.482086e-01
9.336164e-01
9.482086e-01
9.336164e-01
9.482086e-01
9.336164e-01
9.482086e-01
9.336164e-01
9.482086e-01
9.336164e-01
9.482086e-01
9.336164e-01
9.482086e-01
9.336164e-01
9.482086e-01
9.336164e-01
9.482086e-01
9.336164e-01
9.482086e-01
9.336164e-01
9.482086e-01
9.336164e-01
9.482086e-01
9.336164e-01
9.482086e-01
9.336164e-01
9.482086e-01
9.336164e-01
9.482086e-01
9.336164e-01
9.482086e-01
9.336164e-01
9.482086e-01
9.336164e-01
9.482086e-01
9.336164e-01
9.482086e-01
9.336164e-01
9.482086e-01
9.336164e-01
9.482086e-01
9.336164e-01
9.482086e-01
9.336164e-01
9.482086e-01
9.336164e-01
9.482086e-01
9.336164e-01
9.482086e-01
9.336164e-01
9.482086e-01
9.336164e-01
</DataArray>
<DataArray type="Float32" Name="V2" format="ascii">
8.773495e-01
1.020000e+00
8.773495e-01
1.020000e+00
8.773495e-01
1.020000e+00
8.773495e-01
1.020000e+00
8.773495e-01
1.020000e+00
8.773495e-01
1.020000e+00
8.773495e-01
1.020000e+00
8.773495e-01
1.020000e+00
8.773495e-01
1.020000e+00
8.773495e-01
1.020000e+00
8.773495e-01
1.020000e+00
8.773495e-01
1.020000e+00
8.773495e-01
1.020000e+00
8.773495e-01
1.020000e+00
8.773495e-01
1.020000e+00
8.773495e-01
1.020000e+00
8.773495e-01
1.020000e+00
8.773495e-01
1.020000e+00
8.773495e-01
1.020000e+00
8.773495e-01
1.020000e+00
8.773495e-01
1.020000e+00
8.773495e-01
1.020000e+00
8.773495e-01
1.020000e+00
8.773495e-01
1.020000e+00
8.773495e-01
1.020000e+00
8.773495e-01
1.020000e+00
8.773495e-01
1.020000e+00
8.773495e-01
1.020000e+00
8.773495e-01
1.020000e+00
8.773495e-01
1.020000e+00
8.773495e-01
1.020000e+00
8.773495e-01
1.020000e+00
8.773495e-01
1.020000e+00
8.773495e-01
1.020000e+00
8.773495e-01
1.020000e+00
8.773495e-01
1.020000e+00
8.773495e-01
1.020000e+00
8.773495e-01
1.020000e+00
8.773495e-01
1.020000e+00
8.773495e-01
1.020000e+00
8.773495e-01
1.020000e+00
8.773495e-01
1.020000e+00
8.773495e-01
1.020000e+00
8.773495e-01
1.020000e+00
8.773495e-01
1.020000e+00
8.773495e-01
1.020000e+00
8.773495e-01
1.020000e+00
8.773495e-01
1.020000e+00
8.773495e-01
1.020000e+00
8.773495e-01
1.020000e+00
8.773495e-01
1.020000e+00
8.773495e-01
1.020000e+00
8.773495e-01
1.020000e+00
8.773495e-01
1.020000e+00
8.773495e-01
1.020000e+00
8.773495e-01
1.020000e+00
8.773495e-01
1.020000e+00
8.773495e-01
1.020000e+00
8.773495e-01
1.020000e+00
8.773495e-01
1.020000e+00
</DataArray>
<DataArray type="Float32" Name="V3" format="ascii">
0.000000e+00
0.000000e+00
2.264800e-13
-6.964500e-13
2.264800e-13
-6.964500e-13
-1.228300e-13
-9.010600e-13
-1.228300e-13
-9.010600e-13
-4.920000e-14
-8.014800e-13
-4.920000e-14
-8.014800e-13
2.994000e-14
-7.274300e-13
2.994000e-14
-7.274300e-13
8.593000e-14
-6.862200e-13
8.593000e-14
-6.862200e-13
1.264200e-13
-6.637200e-13
1.264200e-13
-6.637200e-13
1.606900e-13
-6.490300e-13
1.606900e-13
-6.490300e-13
1.901800e-13
-6.400500e-13
1.901800e-13
-6.400500e-13
2.165400e-13
-6.363800e-13
2.165400e-13
-6.363800e-13
2.395700e-13
-6.375600e-13
2.395700e-13
-6.375600e-13
2.607900e-13
-6.431500e-13
2.607900e-13
-6.431500e-13
2.807100e-13
-6.533800e-13
2.807100e-13
-6.533800e-13
2.992300e-13
-6.696000e-13
2.992300e-13
-6.696000e-13
3.158500e-13
-6.913500e-13
3.158500e-13
-6.913500e-13
3.300600e-13
-7.214300e-13
3.300600e-13
-7.214300e-13
3.421300e-13
-7.579200e-13
3.421300e-13
-7.579200e-13
3.493300e-13
-8.047800e-13
3.493300e-13
-8.047800e-13
3.511400e-13
-8.613800e-13
3.511400e-13
-8.613800e-13
3.450700e-13
-9.278200e-13
3.450700e-13
-9.278200e-13
3.280300e-13
-1.008080e-12
3.280300e-13
-1.008080e-12
2.989100e-13
-1.098180e-12
2.989100e-13
-1.098180e-12
2.519700e-13
-1.198190e-12
2.519700e-13
-1.198190e-12
1.820000e-13
-1.308520e-12
1.820000e-13
-1.308520e-12
8.394000e-14
-1.425560e-12
8.394000e-14
-1.425560e-12
-4.960000e-14
-1.544120e-12
-4.960000e-14
-1.544120e-12
-2.286800e-13
-1.659170e-12
-2.286800e-13
-1.659170e-12
-4.584000e-13
-1.756800e-12
-4.584000e-13
-1.756800e-12
-6.717600e-13
-1.742990e-12
-6.717600e-13
-1.742990e-12
-3.199500e-13
-1.084620e-12
-3.199500e-13
-1.084620e-12
0.000000e+00
0.000000e+00
</DataArray>
<DataArray type="Float32" Name="V4" format="ascii">
8.500000e-01
1.000000e+00
8.500000e-01
1.000000e+00
8.500000e-01
1.000000e+00
8.500000e-01
1.000000e+00
8.500000e-01
1.000000e+00
8.500000e-01
1.000000e+00
8.500000e-01
1.000000e+00
8.500000e-01
1.000000e+00
8.500000e-01
1.000000e+00
8.500000e-01
1.000000e+00
8.500000e-01
1.000000e+00
8.500000e-01
1.000000e+00
8.500000e-01
1.000000e+00
8.500000e-01
1.000000e+00
8.500000e-01
1.000000e+00
8.500000e-01
1.000000e+00
8.500000e-01
1.000000e+00
8.500000e-01
1.000000e+00
8.500000e-01
1.000000e+00
8.500000e-01
1.000000e+00
8.500000e-01
1.000000e+00
8.500000e-01
1.000000e+00
8.500000e-01
1.000000e+00
8.500000e-01
1.000000e+00
8.500000e-01
1.000000e+00
8.500000e-01
1.000000e+00
8.500000e-01
1.000000e+00
8.500000e-01
1.000000e+00
8.500000e-01
1.000000e+00
8.500000e-01
1.000000e+00
8.500000e-01
1.000000e+00
8.500000e-01
1.000000e+00
8.500000e-01
1.000000e+00
8.500000e-01
1.000000e+00
8.500000e-01
1.000000e+00
8.500000e-01
1.000000e+00
8.500000e-01
1.000000e+00
8.500000e-01
1.000000e+00
8.500000e-01
1.000000e+00
8.500000e-01
1.000000e+00
8.500000e-01
1.000000e+00
8.500000e-01
1.000000e+00
8.500000e-01
1.000000e+00
8.500000e-01
1.000000e+00
8.500000e-01
1.000000e+00
8.500000e-01
1.000000e+00
8.500000e-01
1.000000e+00
8.500000e-01
1.000000e+00
8.500000e-01
1.000000e+00
8.500000e-01
1.000000e+00
8.500000e-01
1.000000e+00
8.500000e-01
1.000000e+00
8.500000e-01
1.000000e+00
8.500000e-01
1.000000e+00
8.500000e-01
1.000000e+00
8.500000e-01
1.000000e+00
8.500000e-01
1.000000e+00
8.500000e-01
1.000000e+00
8.500000e-01
1.000000e+00
8.500000e-01
1.000000e+00
</DataArray>
<DataArray type="Float32" Name="V5" format="ascii">
0.000000e+00
0.000000e+00
5.235988e-02
5.235988e-02
5.235988e-02
5.235988e-02
1.047198e-01
1.047198e-01
1.047198e-01
1.047198e-01
1.570796e-01
1.570796e-01
1.570796e-01
1.570796e-01
2.094395e-01
2.094395e-01
2.094395e-01
2.094395e-01
2.617994e-01
2.617994e-01
2.617994e-01
2.617994e-01
3.141593e-01
3.141593e-01
3.141593e-01
3.141593e-01
3.665191e-01
3.665191e-01
3.665191e-01
3.665191e-01
4.188790e-01
4.188790e-01
4.188790e-01
4.188790e-01
4.712389e-01
4.712389e-01
4.712389e-01
4.712389e-01
5.235988e-01
5.235988e-01
5.235988e-01
5.235988e-01
5.759587e-01
5.759587e-01
5.759587e-01
5.759587e-01
6.283185e-01
6.283185e-01
6.283185e-01
6.283185e-01
6.806784e-01
6.806784e-01
6.806784e-01
6.806784e-01
7.330383e-01
7.330383e-01
7.330383e-01
7.330383e-01
7.853982e-01
7.853982e-01
7.853982e-01
7.853982e-01
8.377580e-01
8.377580e-01
8.377580e-01
8.377580e-01
8.901179e-01
8.901179e-01
8.901179e-01
8.901179e-01
9.424778e-01
9.424778e-01
9.424778e-01
9.424778e-01
9.948377e-01
9.948377e-01
9.948377e-01
9.948377e-01
1.047198e+00
1.047198e+00
1.047198e+00
1.047198e+00
1.099557e+00
1.099557e+00
1.099557e+00
1.099557e+00
1.151917e+00
1.151917e+00
1.151917e+00
1.151917e+00
1.204277e+00
1.204277e+00
1.204277e+00
1.204277e+00
1.256637e+00
1.256637e+00
1.256637e+00
1.256637e+00
1.308997e+00
1.308997e+00
1.308997e+00
1.308997e+00
1.361357e+00
1.361357e+00
1.361357e+00
1.361357e+00
1.413717e+00
1.413717e+00
1.413717e+00
1.413717e+00
1.466077e+00
1.466077e+00
1.466077e+00
1.466077e+00
1.518436e+00
1.518436e+00
1.518436e+00
1.518436e+00
1.570796e+00
1.570796e+00
</DataArray>
</PointData>
</Piece></UnstructuredGrid>
</VTKFile>
