<?xml version="1.0"?>
<VTKFile type="UnstructuredGrid" version="0.1" byte_order="LittleEndian" compressor="vtkZLibDataCompressor">
<UnstructuredGrid>
<Piece NumberOfPoints="120" NumberOfCells="30">
<Points>
<DataArray type="Float32" NumberOfComponents="3" format="ascii">
0.000000e+00 5.471879e-01 0.000000e+00
0.000000e+00 6.300000e-01 0.000000e+00
6.530018e-02 5.472332e-01 0.000000e+00
6.522820e-02 6.300000e-01 0.000000e+00
6.530018e-02 5.472332e-01 0.000000e+00
6.522820e-02 6.300000e-01 0.000000e+00
1.305951e-01 5.473309e-01 0.000000e+00
1.304502e-01 6.300000e-01 0.000000e+00
1.305951e-01 5.473309e-01 0.000000e+00
1.304502e-01 6.300000e-01 0.000000e+00
1.958765e-01 5.474936e-01 0.000000e+00
1.956605e-01 6.300000e-01 0.000000e+00
1.958765e-01 5.474936e-01 0.000000e+00
1.956605e-01 6.300000e-01 0.000000e+00
2.611375e-01 5.477206e-01 0.000000e+00
2.608528e-01 6.300000e-01 0.000000e+00
2.611375e-01 5.477206e-01 0.000000e+00
2.608528e-01 6.300000e-01 0.000000e+00
3.263704e-01 5.480111e-01 0.000000e+00
3.260210e-01 6.300000e-01 0.000000e+00
3.263704e-01 5.480111e-01 0.000000e+00
3.260210e-01 6.300000e-01 0.000000e+00
3.915666e-01 5.483641e-01 0.000000e+00
3.911595e-01 6.300000e-01 0.000000e+00
3.915666e-01 5.483641e-01 0.000000e+00
3.911595e-01 6.300000e-01 0.000000e+00
4.567160e-01 5.487785e-01 0.000000e+00
4.562633e-01 6.300000e-01 0.000000e+00
4.567160e-01 5.487785e-01 0.000000e+00
4.562633e-01 6.300000e-01 0.000000e+00
5.218065e-01 5.492534e-01 0.000000e+00
5.213296e-01 6.300000e-01 0.000000e+00
5.218065e-01 5.492534e-01 0.000000e+00
5.213296e-01 6.300000e-01 0.000000e+00
5.868221e-01 5.497881e-01 0.000000e+00
5.863602e-01 6.300000e-01 0.000000e+00
5.868221e-01 5.497881e-01 0.000000e+00
5.863602e-01 6.300000e-01 0.000000e+00
6.517406e-01 5.503826e-01 0.000000e+00
6.513656e-01 6.300000e-01 0.000000e+00
6.517406e-01 5.503826e-01 0.000000e+00
6.513656e-01 6.300000e-01 0.000000e+00
7.165291e-01 5.510379e-01 0.000000e+00
7.163737e-01 6.300000e-01 0.000000e+00
7.165291e-01 5.510379e-01 0.000000e+00
7.163737e-01 6.300000e-01 0.000000e+00
7.811343e-01 5.517568e-01 0.000000e+00
7.814444e-01 6.300000e-01 0.000000e+00
7.811343e-01 5.517568e-01 0.000000e+00
7.814444e-01 6.300000e-01 0.000000e+00
8.454648e-01 5.525423e-01 0.000000e+00
8.466942e-01 6.300000e-01 0.000000e+00
8.454648e-01 5.525423e-01 0.000000e+00
8.466942e-01 6.300000e-01 0.000000e+00
9.093537e-01 5.533917e-01 0.000000e+00
9.123314e-01 6.300000e-01 0.000000e+00
9.093537e-01 5.533917e-01 0.000000e+00
9.123314e-01 6.300000e-01 0.000000e+00
9.724790e-01 5.542610e-01 0.000000e+00
9.786770e-01 6.300000e-01 0.000000e+00
9.724790e-01 5.542610e-01 0.000000e+00
9.786770e-01 6.300000e-01 0.000000e+00
1.034234e+00 5.548978e-01 0.000000e+00
1.045968e+00 6.300000e-01 0.000000e+00
1.034234e+00 5.548978e-01 0.000000e+00
1.045968e+00 6.300000e-01 0.000000e+00
1.094553e+00 5.542808e-01 0.000000e+00
1.112185e+00 6.287823e-01 0.000000e+00
1.094553e+00 5.542808e-01 0.000000e+00
1.112185e+00 6.287823e-01 0.000000e+00
1.152819e+00 5.449422e-01 0.000000e+00
1.176508e+00 6.164547e-01 0.000000e+00
1.152819e+00 5.449422e-01 0.000000e+00
1.176508e+00 6.164547e-01 0.000000e+00
1.207813e+00 5.266824e-01 0.000000e+00
1.238913e+00 5.941515e-01 0.000000e+00
1.207813e+00 5.266824e-01 0.000000e+00
1.238913e+00 5.941515e-01 0.000000e+00
1.259143e+00 5.004719e-01 0.000000e+00
1.297682e+00 5.629688e-01 0.000000e+00
1.259143e+00 5.004719e-01 0.000000e+00
1.297682e+00 5.629688e-01 0.000000e+00
1.306371e+00 4.674111e-01 0.000000e+00
1.351691e+00 5.242266e-01 0.000000e+00
1.306371e+00 4.674111e-01 0.000000e+00
1.351691e+00 5.242266e-01 0.000000e+00
1.349142e+00 4.285030e-01 0.000000e+00
1.400324e+00 4.791911e-01 0.000000e+00
1.349142e+00 4.285030e-01 0.000000e+00
1.400324e+00 4.791911e-01 0.000000e+00
1.387204e+00 3.846645e-01 0.000000e+00
1.443285e+00 4.289932e-01 0.000000e+00
1.387204e+00 3.846645e-01 0.000000e+00
1.443285e+00 4.289932e-01 0.000000e+00
1.420382e+00 3.367214e-01 0.000000e+00
1.480458e+00 3.746052e-01 0.000000e+00
1.420382e+00 3.367214e-01 0.000000e+00
1.480458e+00 3.746052e-01 0.000000e+00
1.448564e+00 2.854152e-01 0.000000e+00
1.511825e+00 3.168568e-01 0.000000e+00
1.448564e+00 2.854152e-01 0.000000e+00
1.511825e+00 3.168568e-01 0.000000e+00
1.471678e+00 2.314144e-01 0.000000e+00
1.537408e+00 2.564606e-01 0.000000e+00
1.471678e+00 2.314144e-01 0.000000e+00
1.537408e+00 2.564606e-01 0.000000e+00
1.489684e+00 1.753272e-01 0.000000e+00
1.557249e+00 1.940401e-01 0.000000e+00
1.489684e+00 1.753272e-01 0.000000e+00
1.557249e+00 1.940401e-01 0.000000e+00
1.502557e+00 1.177149e-01 0.000000e+00
1.571387e+00 1.301530e-01 0.000000e+00
1.502557e+00 1.177149e-01 0.000000e+00
1.571387e+00 1.301530e-01 0.000000e+00
1.510284e+00 5.910428e-02 0.000000e+00
1.579857e+00 6.531163e-02 0.000000e+00
1.510284e+00 5.910428e-02 0.000000e+00
1.579857e+00 6.531163e-02 0.000000e+00
1.512861e+00 7.407860e-12 0.000000e+00
1.582677e+00 7.749720e-12 0.000000e+00
</DataArray>
</Points>
<Cells>
<DataArray type="Int32" Name="connectivity" format="ascii">
0 1 3 2
4 5 7 6
8 9 11 10
12 13 15 14
16 17 19 18
20 21 23 22
24 25 27 26
28 29 31 30
32 33 35 34
36 37 39 38
40 41 43 42
44 45 47 46
48 49 51 50
52 53 55 54
56 57 59 58
60 61 63 62
64 65 67 66
68 69 71 70
72 73 75 74
76 77 79 78
80 81 83 82
84 85 87 86
88 89 91 90
92 93 95 94
96 97 99 98
100 101 103 102
104 105 107 106
108 109 111 110
112 113 115 114
116 117 119 118
</DataArray>
<DataArray type="Int32" Name="offsets" format="ascii">
4
8
12
16
20
24
28
32
36
40
44
48
52
56
60
64
68
72
76
80
84
88
92
96
100
104
108
112
116
120
</DataArray>
<DataArray type="UInt8" Name="types" format="ascii">
9
9
9
9
9
9
9
9
9
9
9
9
9
9
9
9
9
9
9
9
9
9
9
9
9
9
9
9
9
9
</DataArray>
</Cells>
<PointData>
<DataArray type="Float32" Name="V1" format="ascii">
3.314525e+01
-1.145602e+00
3.318429e+01
-1.106564e+00
3.324943e+01
-1.148227e+00
3.335797e+01
-1.039687e+00
3.349039e+01
-1.125173e+00
3.367453e+01
-9.410388e-01
3.387348e+01
-1.071366e+00
3.413518e+01
-8.096650e-01
3.440255e+01
-9.859714e-01
3.474488e+01
-6.436424e-01
3.508277e+01
-8.673333e-01
3.550997e+01
-4.401369e-01
3.592031e+01
-7.126605e-01
3.643796e+01
-1.950064e-01
3.692158e+01
-5.173520e-01
3.753696e+01
9.802455e-02
3.809182e+01
-2.736507e-01
3.881441e+01
4.489330e-01
3.943199e+01
3.193792e-02
4.027445e+01
8.744015e-01
4.093266e+01
4.237195e-01
4.191257e+01
1.403626e+00
4.256193e+01
9.468397e-01
4.370471e+01
2.089624e+00
4.424196e+01
1.687528e+00
4.558575e+01
3.031320e+00
4.580485e+01
2.814993e+00
4.740703e+01
4.417174e+00
4.691247e+01
4.670094e+00
4.886177e+01
6.619389e+00
4.690084e+01
7.987382e+00
4.940973e+01
1.049627e+01
4.457359e+01
1.492773e+01
4.831630e+01
1.867044e+01
4.406686e+01
2.202302e+01
4.674448e+01
2.470063e+01
4.536190e+01
2.554466e+01
4.777474e+01
2.795750e+01
4.781427e+01
2.793588e+01
5.014845e+01
3.027006e+01
5.087908e+01
2.970707e+01
5.309333e+01
3.192133e+01
5.413572e+01
3.109366e+01
5.617171e+01
3.312965e+01
5.731578e+01
3.221609e+01
5.913407e+01
3.403438e+01
6.025614e+01
3.314197e+01
6.183553e+01
3.472136e+01
6.286248e+01
3.391082e+01
6.419435e+01
3.524270e+01
6.508350e+01
3.454675e+01
6.616661e+01
3.562985e+01
6.689380e+01
3.506498e+01
6.773054e+01
3.590173e+01
6.828273e+01
3.547546e+01
6.887679e+01
3.606953e+01
6.924735e+01
3.578477e+01
6.960220e+01
3.613962e+01
6.978805e+01
3.599719e+01
6.990605e+01
3.611519e+01
</DataArray>
<DataArray type="Float32" Name="V2" format="ascii">
5.471879e-01
6.300000e-01
5.499008e-01
6.325504e-01
5.499008e-01
6.325504e-01
5.579834e-01
6.401846e-01
5.579834e-01
6.401846e-01
5.713948e-01
6.528517e-01
5.713948e-01
6.528517e-01
5.900451e-01
6.704673e-01
5.900451e-01
6.704673e-01
6.138089e-01
6.929137e-01
6.138089e-01
6.929137e-01
6.425260e-01
7.200405e-01
6.425260e-01
7.200405e-01
6.760013e-01
7.516658e-01
6.760013e-01
7.516658e-01
7.140058e-01
7.875775e-01
7.140058e-01
7.875775e-01
7.562764e-01
8.275361e-01
7.562764e-01
8.275361e-01
8.025156e-01
8.712788e-01
8.025156e-01
8.712788e-01
8.523890e-01
9.185276e-01
8.523890e-01
9.185276e-01
9.055198e-01
9.690022e-01
9.055198e-01
9.690022e-01
9.614742e-01
1.022444e+00
9.614742e-01
1.022444e+00
1.019727e+00
1.078650e+00
1.019727e+00
1.078650e+00
1.079568e+00
1.137506e+00
1.079568e+00
1.137506e+00
1.139885e+00
1.198858e+00
1.139885e+00
1.198858e+00
1.199448e+00
1.260036e+00
1.199448e+00
1.260036e+00
1.252959e+00
1.314158e+00
1.252959e+00
1.314158e+00
1.299809e+00
1.362638e+00
1.299809e+00
1.362638e+00
1.340686e+00
1.405310e+00
1.340686e+00
1.405310e+00
1.376185e+00
1.442359e+00
1.376185e+00
1.442359e+00
1.406791e+00
1.474164e+00
1.406791e+00
1.474164e+00
1.432918e+00
1.501160e+00
1.432918e+00
1.501160e+00
1.454916e+00
1.523759e+00
1.454916e+00
1.523759e+00
1.473076e+00
1.542319e+00
1.473076e+00
1.542319e+00
1.487632e+00
1.557133e+00
1.487632e+00
1.557133e+00
1.498771e+00
1.568431e+00
1.498771e+00
1.568431e+00
1.506630e+00
1.576384e+00
1.506630e+00
1.576384e+00
1.511308e+00
1.581110e+00
1.511308e+00
1.581110e+00
1.512861e+00
1.582677e+00
</DataArray>
<DataArray type="Float32" Name="V3" format="ascii">
0.000000e+00
0.000000e+00
3.657071e-02
3.216716e-02
3.657071e-02
3.216716e-02
7.266804e-02
6.388269e-02
7.266804e-02
6.388269e-02
1.078181e-01
9.469792e-02
1.078181e-01
9.469792e-02
1.415535e-01
1.241682e-01
1.415535e-01
1.241682e-01
1.734138e-01
1.518561e-01
1.734138e-01
1.518561e-01
2.029481e-01
1.773340e-01
2.029481e-01
1.773340e-01
2.297165e-01
2.001866e-01
2.297165e-01
2.001866e-01
2.532925e-01
2.200142e-01
2.532925e-01
2.200142e-01
2.732637e-01
2.364368e-01
2.732637e-01
2.364368e-01
2.892326e-01
2.490992e-01
2.892326e-01
2.490992e-01
3.008151e-01
2.576790e-01
3.008151e-01
2.576790e-01
3.076364e-01
2.618971e-01
3.076364e-01
2.618971e-01
3.093234e-01
2.615331e-01
3.093234e-01
2.615331e-01
3.054902e-01
2.564421e-01
3.054902e-01
2.564421e-01
2.957248e-01
2.465519e-01
2.957248e-01
2.465519e-01
2.796684e-01
2.317080e-01
2.796684e-01
2.317080e-01
2.580675e-01
2.112652e-01
2.580675e-01
2.112652e-01
2.367424e-01
1.928118e-01
2.367424e-01
1.928118e-01
2.161088e-01
1.764632e-01
2.161088e-01
1.764632e-01
1.961503e-01
1.612957e-01
1.961503e-01
1.612957e-01
1.766136e-01
1.465655e-01
1.766136e-01
1.465655e-01
1.572886e-01
1.318001e-01
1.572886e-01
1.318001e-01
1.380141e-01
1.167273e-01
1.380141e-01
1.167273e-01
1.186811e-01
1.012160e-01
1.186811e-01
1.012160e-01
9.922592e-02
8.522888e-02
9.922592e-02
8.522888e-02
7.962163e-02
6.878879e-02
7.962163e-02
6.878879e-02
5.986920e-02
5.195625e-02
5.986920e-02
5.195625e-02
3.998990e-02
3.481472e-02
3.998990e-02
3.481472e-02
2.001890e-02
1.746118e-02
2.001890e-02
1.746118e-02
0.000000e+00
0.000000e+00
</DataArray>
<DataArray type="Float32" Name="V4" format="ascii">
8.500000e-01
1.000000e+00
8.500000e-01
1.000000e+00
8.500000e-01
1.000000e+00
8.500000e-01
1.000000e+00
8.500000e-01
1.000000e+00
8.500000e-01
1.000000e+00
8.500000e-01
1.000000e+00
8.500000e-01
1.000000e+00
8.500000e-01
1.000000e+00
8.500000e-01
1.000000e+00
8.500000e-01
1.000000e+00
8.500000e-01
1.000000e+00
8.500000e-01
1.000000e+00
8.500000e-01
1.000000e+00
8.500000e-01
1.000000e+00
8.500000e-01
1.000000e+00
8.500000e-01
1.000000e+00
8.500000e-01
1.000000e+00
8.500000e-01
1.000000e+00
8.500000e-01
1.000000e+00
8.500000e-01
1.000000e+00
8.500000e-01
1.000000e+00
8.500000e-01
1.000000e+00
8.500000e-01
1.000000e+00
8.500000e-01
1.000000e+00
8.500000e-01
1.000000e+00
8.500000e-01
1.000000e+00
8.500000e-01
1.000000e+00
8.500000e-01
1.000000e+00
8.500000e-01
1.000000e+00
8.500000e-01
1.000000e+00
8.500000e-01
1.000000e+00
8.500000e-01
1.000000e+00
8.500000e-01
1.000000e+00
8.500000e-01
1.000000e+00
8.500000e-01
1.000000e+00
8.500000e-01
1.000000e+00
8.500000e-01
1.000000e+00
8.500000e-01
1.000000e+00
8.500000e-01
1.000000e+00
8.500000e-01
1.000000e+00
8.500000e-01
1.000000e+00
8.500000e-01
1.000000e+00
8.500000e-01
1.000000e+00
8.500000e-01
1.000000e+00
8.500000e-01
1.000000e+00
8.500000e-01
1.000000e+00
8.500000e-01
1.000000e+00
8.500000e-01
1.000000e+00
8.500000e-01
1.000000e+00
8.500000e-01
1.000000e+00
8.500000e-01
1.000000e+00
8.500000e-01
1.000000e+00
8.500000e-01
1.000000e+00
8.500000e-01
1.000000e+00
8.500000e-01
1.000000e+00
8.500000e-01
1.000000e+00
8.500000e-01
1.000000e+00
8.500000e-01
1.000000e+00
8.500000e-01
1.000000e+00
</DataArray>
<DataArray type="Float32" Name="V5" format="ascii">
0.000000e+00
0.000000e+00
5.235988e-02
5.235988e-02
5.235988e-02
5.235988e-02
1.047198e-01
1.047198e-01
1.047198e-01
1.047198e-01
1.570796e-01
1.570796e-01
1.570796e-01
1.570796e-01
2.094395e-01
2.094395e-01
2.094395e-01
2.094395e-01
2.617994e-01
2.617994e-01
2.617994e-01
2.617994e-01
3.141593e-01
3.141593e-01
3.141593e-01
3.141593e-01
3.665191e-01
3.665191e-01
3.665191e-01
3.665191e-01
4.188790e-01
4.188790e-01
4.188790e-01
4.188790e-01
4.712389e-01
4.712389e-01
4.712389e-01
4.712389e-01
5.235988e-01
5.235988e-01
5.235988e-01
5.235988e-01
5.759587e-01
5.759587e-01
5.759587e-01
5.759587e-01
6.283185e-01
6.283185e-01
6.283185e-01
6.283185e-01
6.806784e-01
6.806784e-01
6.806784e-01
6.806784e-01
7.330383e-01
7.330383e-01
7.330383e-01
7.330383e-01
7.853982e-01
7.853982e-01
7.853982e-01
7.853982e-01
8.377580e-01
8.377580e-01
8.377580e-01
8.377580e-01
8.901179e-01
8.901179e-01
8.901179e-01
8.901179e-01
9.424778e-01
9.424778e-01
9.424778e-01
9.424778e-01
9.948377e-01
9.948377e-01
9.948377e-01
9.948377e-01
1.047198e+00
1.047198e+00
1.047198e+00
1.047198e+00
1.099557e+00
1.099557e+00
1.099557e+00
1.099557e+00
1.151917e+00
1.151917e+00
1.151917e+00
1.151917e+00
1.204277e+00
1.204277e+00
1.204277e+00
1.204277e+00
1.256637e+00
1.256637e+00
1.256637e+00
1.256637e+00
1.308997e+00
1.308997e+00
1.308997e+00
1.308997e+00
1.361357e+00
1.361357e+00
1.361357e+00
1.361357e+00
1.413717e+00
1.413717e+00
1.413717e+00
1.413717e+00
1.466077e+00
1.466077e+00
1.466077e+00
1.466077e+00
1.518436e+00
1.518436e+00
1.518436e+00
1.518436e+00
1.570796e+00
1.570796e+00
</DataArray>
</PointData>
</Piece></UnstructuredGrid>
</VTKFile>
