<?xml version="1.0"?>
<VTKFile type="UnstructuredGrid" version="0.1" byte_order="LittleEndian" compressor="vtkZLibDataCompressor">
<UnstructuredGrid>
<Piece NumberOfPoints="120" NumberOfCells="30">
<Points>
<DataArray type="Float32" NumberOfComponents="3" format="ascii">
0.000000e+00 5.988469e-01 0.000000e+00
0.000000e+00 6.900000e-01 0.000000e+00
6.225275e-02 5.988958e-01 0.000000e+00
6.216486e-02 6.900000e-01 0.000000e+00
6.225275e-02 5.988958e-01 0.000000e+00
6.216486e-02 6.900000e-01 0.000000e+00
1.245023e-01 5.990093e-01 0.000000e+00
1.243258e-01 6.900000e-01 0.000000e+00
1.245023e-01 5.990093e-01 0.000000e+00
1.243258e-01 6.900000e-01 0.000000e+00
1.867426e-01 5.991983e-01 0.000000e+00
1.864801e-01 6.900000e-01 0.000000e+00
1.867426e-01 5.991983e-01 0.000000e+00
1.864801e-01 6.900000e-01 0.000000e+00
2.489686e-01 5.994622e-01 0.000000e+00
2.486243e-01 6.900000e-01 0.000000e+00
2.489686e-01 5.994622e-01 0.000000e+00
2.486243e-01 6.900000e-01 0.000000e+00
3.111744e-01 5.998003e-01 0.000000e+00
3.107560e-01 6.900000e-01 0.000000e+00
3.111744e-01 5.998003e-01 0.000000e+00
3.107560e-01 6.900000e-01 0.000000e+00
3.733524e-01 6.002122e-01 0.000000e+00
3.728745e-01 6.900000e-01 0.000000e+00
3.733524e-01 6.002122e-01 0.000000e+00
3.728745e-01 6.900000e-01 0.000000e+00
4.354921e-01 6.006977e-01 0.000000e+00
4.349830e-01 6.900000e-01 0.000000e+00
4.354921e-01 6.006977e-01 0.000000e+00
4.349830e-01 6.900000e-01 0.000000e+00
4.975782e-01 6.012578e-01 0.000000e+00
4.970926e-01 6.900000e-01 0.000000e+00
4.975782e-01 6.012578e-01 0.000000e+00
4.970926e-01 6.900000e-01 0.000000e+00
5.595862e-01 6.018956e-01 0.000000e+00
5.592298e-01 6.900000e-01 0.000000e+00
5.595862e-01 6.018956e-01 0.000000e+00
5.592298e-01 6.900000e-01 0.000000e+00
6.214737e-01 6.026166e-01 0.000000e+00
6.214502e-01 6.900000e-01 0.000000e+00
6.214737e-01 6.026166e-01 0.000000e+00
6.214502e-01 6.900000e-01 0.000000e+00
6.831642e-01 6.034282e-01 0.000000e+00
6.838614e-01 6.900000e-01 0.000000e+00
6.831642e-01 6.034282e-01 0.000000e+00
6.838614e-01 6.900000e-01 0.000000e+00
7.445133e-01 6.043317e-01 0.000000e+00
7.466526e-01 6.900000e-01 0.000000e+00
7.445133e-01 6.043317e-01 0.000000e+00
7.466526e-01 6.900000e-01 0.000000e+00
8.052419e-01 6.052851e-01 0.000000e+00
8.101121e-01 6.900000e-01 0.000000e+00
8.052419e-01 6.052851e-01 0.000000e+00
8.101121e-01 6.900000e-01 0.000000e+00
8.648076e-01 6.060087e-01 0.000000e+00
8.745229e-01 6.900000e-01 0.000000e+00
8.648076e-01 6.060087e-01 0.000000e+00
8.745229e-01 6.900000e-01 0.000000e+00
9.228837e-01 6.061144e-01 0.000000e+00
9.388794e-01 6.900000e-01 0.000000e+00
9.228837e-01 6.061144e-01 0.000000e+00
9.388794e-01 6.900000e-01 0.000000e+00
9.795641e-01 6.003541e-01 0.000000e+00
1.001493e+00 6.820497e-01 0.000000e+00
9.795641e-01 6.003541e-01 0.000000e+00
1.001493e+00 6.820497e-01 0.000000e+00
1.033506e+00 5.866158e-01 0.000000e+00
1.063007e+00 6.646272e-01 0.000000e+00
1.033506e+00 5.866158e-01 0.000000e+00
1.063007e+00 6.646272e-01 0.000000e+00
1.084652e+00 5.656574e-01 0.000000e+00
1.122108e+00 6.390652e-01 0.000000e+00
1.084652e+00 5.656574e-01 0.000000e+00
1.122108e+00 6.390652e-01 0.000000e+00
1.132646e+00 5.382204e-01 0.000000e+00
1.177591e+00 6.062762e-01 0.000000e+00
1.132646e+00 5.382204e-01 0.000000e+00
1.177591e+00 6.062762e-01 0.000000e+00
1.177157e+00 5.051133e-01 0.000000e+00
1.228767e+00 5.673007e-01 0.000000e+00
1.177157e+00 5.051133e-01 0.000000e+00
1.228767e+00 5.673007e-01 0.000000e+00
1.217913e+00 4.670844e-01 0.000000e+00
1.275265e+00 5.231014e-01 0.000000e+00
1.217913e+00 4.670844e-01 0.000000e+00
1.275265e+00 5.231014e-01 0.000000e+00
1.254707e+00 4.248266e-01 0.000000e+00
1.316902e+00 4.745289e-01 0.000000e+00
1.254707e+00 4.248266e-01 0.000000e+00
1.316902e+00 4.745289e-01 0.000000e+00
1.287388e+00 3.789716e-01 0.000000e+00
1.353608e+00 4.223175e-01 0.000000e+00
1.287388e+00 3.789716e-01 0.000000e+00
1.353608e+00 4.223175e-01 0.000000e+00
1.315850e+00 3.300929e-01 0.000000e+00
1.385364e+00 3.671007e-01 0.000000e+00
1.315850e+00 3.300929e-01 0.000000e+00
1.385364e+00 3.671007e-01 0.000000e+00
1.340019e+00 2.787131e-01 0.000000e+00
1.412181e+00 3.094306e-01 0.000000e+00
1.340019e+00 2.787131e-01 0.000000e+00
1.412181e+00 3.094306e-01 0.000000e+00
1.359845e+00 2.253111e-01 0.000000e+00
1.434081e+00 2.497961e-01 0.000000e+00
1.359845e+00 2.253111e-01 0.000000e+00
1.434081e+00 2.497961e-01 0.000000e+00
1.375293e+00 1.703307e-01 0.000000e+00
1.451086e+00 1.886392e-01 0.000000e+00
1.375293e+00 1.703307e-01 0.000000e+00
1.451086e+00 1.886392e-01 0.000000e+00
1.386341e+00 1.141892e-01 0.000000e+00
1.463217e+00 1.263675e-01 0.000000e+00
1.386341e+00 1.141892e-01 0.000000e+00
1.463217e+00 1.263675e-01 0.000000e+00
1.392975e+00 5.728396e-02 0.000000e+00
1.470490e+00 6.336469e-02 0.000000e+00
1.392975e+00 5.728396e-02 0.000000e+00
1.470490e+00 6.336469e-02 0.000000e+00
1.395187e+00 6.831660e-12 0.000000e+00
1.472913e+00 7.212250e-12 0.000000e+00
</DataArray>
</Points>
<Cells>
<DataArray type="Int32" Name="connectivity" format="ascii">
0 1 3 2
4 5 7 6
8 9 11 10
12 13 15 14
16 17 19 18
20 21 23 22
24 25 27 26
28 29 31 30
32 33 35 34
36 37 39 38
40 41 43 42
44 45 47 46
48 49 51 50
52 53 55 54
56 57 59 58
60 61 63 62
64 65 67 66
68 69 71 70
72 73 75 74
76 77 79 78
80 81 83 82
84 85 87 86
88 89 91 90
92 93 95 94
96 97 99 98
100 101 103 102
104 105 107 106
108 109 111 110
112 113 115 114
116 117 119 118
</DataArray>
<DataArray type="Int32" Name="offsets" format="ascii">
4
8
12
16
20
24
28
32
36
40
44
48
52
56
60
64
68
72
76
80
84
88
92
96
100
104
108
112
116
120
</DataArray>
<DataArray type="UInt8" Name="types" format="ascii">
9
9
9
9
9
9
9
9
9
9
9
9
9
9
9
9
9
9
9
9
9
9
9
9
9
9
9
9
9
9
</DataArray>
</Cells>
<PointData>
<DataArray type="Float32" Name="V1" format="ascii">
2.252967e+01
-8.433338e-01
2.255851e+01
-8.144932e-01
2.260345e+01
-8.439976e-01
2.268206e+01
-7.653872e-01
2.277396e+01
-8.256279e-01
2.290722e+01
-6.923669e-01
2.304510e+01
-7.840921e-01
2.323443e+01
-5.947619e-01
2.341921e+01
-7.185324e-01
2.366677e+01
-4.709713e-01
2.389894e+01
-6.271728e-01
2.420778e+01
-3.183396e-01
2.448643e+01
-5.066333e-01
2.486066e+01
-1.324073e-01
2.518143e+01
-3.504988e-01
2.562666e+01
9.473146e-02
2.597750e+01
-1.463924e-01
2.650166e+01
3.777705e-01
2.685438e+01
1.300430e-01
2.746937e+01
7.450346e-01
2.776313e+01
5.275180e-01
2.848799e+01
1.252379e+00
2.859830e+01
1.144687e+00
2.946512e+01
2.011503e+00
2.914911e+01
2.183785e+00
3.021583e+01
3.250506e+00
2.901971e+01
4.050955e+00
3.044467e+01
5.475913e+00
2.740871e+01
7.949618e+00
2.964237e+01
1.018328e+01
2.599912e+01
1.355999e+01
2.784360e+01
1.540447e+01
2.624690e+01
1.633248e+01
2.761514e+01
1.770072e+01
2.726848e+01
1.798007e+01
2.860484e+01
1.931643e+01
2.881232e+01
1.916006e+01
3.009784e+01
2.044558e+01
3.058680e+01
2.005190e+01
3.178764e+01
2.125274e+01
3.239995e+01
2.075528e+01
3.349228e+01
2.184761e+01
3.413730e+01
2.132602e+01
3.510908e+01
2.229779e+01
3.573316e+01
2.179773e+01
3.658031e+01
2.264488e+01
3.715233e+01
2.219119e+01
3.787553e+01
2.291440e+01
3.837801e+01
2.251970e+01
3.898037e+01
2.312207e+01
3.940407e+01
2.279205e+01
3.988963e+01
2.327761e+01
4.023015e+01
2.301422e+01
4.060295e+01
2.338702e+01
4.085855e+01
2.319037e+01
4.112213e+01
2.345394e+01
4.129240e+01
2.332343e+01
4.144943e+01
2.348046e+01
4.153449e+01
2.341542e+01
4.158665e+01
2.346757e+01
</DataArray>
<DataArray type="Float32" Name="V2" format="ascii">
5.988469e-01
6.900000e-01
6.013331e-01
6.923078e-01
6.013331e-01
6.923078e-01
6.087419e-01
6.992157e-01
6.087419e-01
6.992157e-01
6.210341e-01
7.106769e-01
6.210341e-01
7.106769e-01
6.381260e-01
7.266137e-01
6.381260e-01
7.266137e-01
6.599005e-01
7.469184e-01
6.599005e-01
7.469184e-01
6.862079e-01
7.714535e-01
6.862079e-01
7.714535e-01
7.168660e-01
8.000545e-01
7.168660e-01
8.000545e-01
7.516597e-01
8.325321e-01
7.516597e-01
8.325321e-01
7.903397e-01
8.686795e-01
7.903397e-01
8.686795e-01
8.326181e-01
9.082827e-01
8.326181e-01
9.082827e-01
8.781553e-01
9.511403e-01
8.781553e-01
9.511403e-01
9.265286e-01
9.970931e-01
9.265286e-01
9.970931e-01
9.771501e-01
1.046051e+00
9.771501e-01
1.046051e+00
1.029021e+00
1.097940e+00
1.029021e+00
1.097940e+00
1.081165e+00
1.151792e+00
1.081165e+00
1.151792e+00
1.129673e+00
1.200635e+00
1.129673e+00
1.200635e+00
1.172354e+00
1.244375e+00
1.172354e+00
1.244375e+00
1.209987e+00
1.283437e+00
1.209987e+00
1.283437e+00
1.243053e+00
1.317812e+00
1.243053e+00
1.317812e+00
1.272005e+00
1.347794e+00
1.272005e+00
1.347794e+00
1.297221e+00
1.373752e+00
1.297221e+00
1.373752e+00
1.319025e+00
1.396059e+00
1.319025e+00
1.396059e+00
1.337692e+00
1.415047e+00
1.337692e+00
1.415047e+00
1.353452e+00
1.431000e+00
1.353452e+00
1.431000e+00
1.366496e+00
1.444149e+00
1.366496e+00
1.444149e+00
1.376974e+00
1.454678e+00
1.376974e+00
1.454678e+00
1.385006e+00
1.462730e+00
1.385006e+00
1.462730e+00
1.390682e+00
1.468411e+00
1.390682e+00
1.468411e+00
1.394064e+00
1.471791e+00
1.394064e+00
1.471791e+00
1.395187e+00
1.472913e+00
</DataArray>
<DataArray type="Float32" Name="V3" format="ascii">
0.000000e+00
0.000000e+00
3.082365e-02
2.596785e-02
3.082365e-02
2.596785e-02
6.120675e-02
5.152013e-02
6.120675e-02
5.152013e-02
9.070818e-02
7.624446e-02
9.070818e-02
7.624446e-02
1.188928e-01
9.973219e-02
1.188928e-01
9.973219e-02
1.453316e-01
1.215821e-01
1.453316e-01
1.215821e-01
1.696034e-01
1.414030e-01
1.696034e-01
1.414030e-01
1.912961e-01
1.588177e-01
1.912961e-01
1.588177e-01
2.100068e-01
1.734684e-01
2.100068e-01
1.734684e-01
2.253401e-01
1.850239e-01
2.253401e-01
1.850239e-01
2.369037e-01
1.931917e-01
2.369037e-01
1.931917e-01
2.442992e-01
1.977335e-01
2.442992e-01
1.977335e-01
2.471067e-01
1.984828e-01
2.471067e-01
1.984828e-01
2.448722e-01
1.953443e-01
2.448722e-01
1.953443e-01
2.371784e-01
1.881970e-01
2.371784e-01
1.881970e-01
2.239897e-01
1.759843e-01
2.239897e-01
1.759843e-01
2.093063e-01
1.632683e-01
2.093063e-01
1.632683e-01
1.945203e-01
1.524595e-01
1.945203e-01
1.524595e-01
1.799158e-01
1.425438e-01
1.799158e-01
1.425438e-01
1.654935e-01
1.328958e-01
1.654935e-01
1.328958e-01
1.511377e-01
1.230868e-01
1.511377e-01
1.230868e-01
1.367458e-01
1.128712e-01
1.367458e-01
1.128712e-01
1.222370e-01
1.021287e-01
1.222370e-01
1.021287e-01
1.075583e-01
9.082227e-02
1.075583e-01
9.082227e-02
9.268309e-02
7.896743e-02
9.268309e-02
7.896743e-02
7.760634e-02
6.661238e-02
7.760634e-02
6.661238e-02
6.234019e-02
5.382468e-02
6.234019e-02
5.382468e-02
4.690954e-02
4.068310e-02
4.690954e-02
4.068310e-02
3.134845e-02
2.727264e-02
3.134845e-02
2.727264e-02
1.569722e-02
1.368162e-02
1.569722e-02
1.368162e-02
0.000000e+00
0.000000e+00
</DataArray>
<DataArray type="Float32" Name="V4" format="ascii">
8.500000e-01
1.000000e+00
8.500000e-01
1.000000e+00
8.500000e-01
1.000000e+00
8.500000e-01
1.000000e+00
8.500000e-01
1.000000e+00
8.500000e-01
1.000000e+00
8.500000e-01
1.000000e+00
8.500000e-01
1.000000e+00
8.500000e-01
1.000000e+00
8.500000e-01
1.000000e+00
8.500000e-01
1.000000e+00
8.500000e-01
1.000000e+00
8.500000e-01
1.000000e+00
8.500000e-01
1.000000e+00
8.500000e-01
1.000000e+00
8.500000e-01
1.000000e+00
8.500000e-01
1.000000e+00
8.500000e-01
1.000000e+00
8.500000e-01
1.000000e+00
8.500000e-01
1.000000e+00
8.500000e-01
1.000000e+00
8.500000e-01
1.000000e+00
8.500000e-01
1.000000e+00
8.500000e-01
1.000000e+00
8.500000e-01
1.000000e+00
8.500000e-01
1.000000e+00
8.500000e-01
1.000000e+00
8.500000e-01
1.000000e+00
8.500000e-01
1.000000e+00
8.500000e-01
1.000000e+00
8.500000e-01
1.000000e+00
8.500000e-01
1.000000e+00
8.500000e-01
1.000000e+00
8.500000e-01
1.000000e+00
8.500000e-01
1.000000e+00
8.500000e-01
1.000000e+00
8.500000e-01
1.000000e+00
8.500000e-01
1.000000e+00
8.500000e-01
1.000000e+00
8.500000e-01
1.000000e+00
8.500000e-01
1.000000e+00
8.500000e-01
1.000000e+00
8.500000e-01
1.000000e+00
8.500000e-01
1.000000e+00
8.500000e-01
1.000000e+00
8.500000e-01
1.000000e+00
8.500000e-01
1.000000e+00
8.500000e-01
1.000000e+00
8.500000e-01
1.000000e+00
8.500000e-01
1.000000e+00
8.500000e-01
1.000000e+00
8.500000e-01
1.000000e+00
8.500000e-01
1.000000e+00
8.500000e-01
1.000000e+00
8.500000e-01
1.000000e+00
8.500000e-01
1.000000e+00
8.500000e-01
1.000000e+00
8.500000e-01
1.000000e+00
8.500000e-01
1.000000e+00
8.500000e-01
1.000000e+00
</DataArray>
<DataArray type="Float32" Name="V5" format="ascii">
0.000000e+00
0.000000e+00
5.235988e-02
5.235988e-02
5.235988e-02
5.235988e-02
1.047198e-01
1.047198e-01
1.047198e-01
1.047198e-01
1.570796e-01
1.570796e-01
1.570796e-01
1.570796e-01
2.094395e-01
2.094395e-01
2.094395e-01
2.094395e-01
2.617994e-01
2.617994e-01
2.617994e-01
2.617994e-01
3.141593e-01
3.141593e-01
3.141593e-01
3.141593e-01
3.665191e-01
3.665191e-01
3.665191e-01
3.665191e-01
4.188790e-01
4.188790e-01
4.188790e-01
4.188790e-01
4.712389e-01
4.712389e-01
4.712389e-01
4.712389e-01
5.235988e-01
5.235988e-01
5.235988e-01
5.235988e-01
5.759587e-01
5.759587e-01
5.759587e-01
5.759587e-01
6.283185e-01
6.283185e-01
6.283185e-01
6.283185e-01
6.806784e-01
6.806784e-01
6.806784e-01
6.806784e-01
7.330383e-01
7.330383e-01
7.330383e-01
7.330383e-01
7.853982e-01
7.853982e-01
7.853982e-01
7.853982e-01
8.377580e-01
8.377580e-01
8.377580e-01
8.377580e-01
8.901179e-01
8.901179e-01
8.901179e-01
8.901179e-01
9.424778e-01
9.424778e-01
9.424778e-01
9.424778e-01
9.948377e-01
9.948377e-01
9.948377e-01
9.948377e-01
1.047198e+00
1.047198e+00
1.047198e+00
1.047198e+00
1.099557e+00
1.099557e+00
1.099557e+00
1.099557e+00
1.151917e+00
1.151917e+00
1.151917e+00
1.151917e+00
1.204277e+00
1.204277e+00
1.204277e+00
1.204277e+00
1.256637e+00
1.256637e+00
1.256637e+00
1.256637e+00
1.308997e+00
1.308997e+00
1.308997e+00
1.308997e+00
1.361357e+00
1.361357e+00
1.361357e+00
1.361357e+00
1.413717e+00
1.413717e+00
1.413717e+00
1.413717e+00
1.466077e+00
1.466077e+00
1.466077e+00
1.466077e+00
1.518436e+00
1.518436e+00
1.518436e+00
1.518436e+00
1.570796e+00
1.570796e+00
</DataArray>
</PointData>
</Piece></UnstructuredGrid>
</VTKFile>
