<?xml version="1.0"?>
<VTKFile type="UnstructuredGrid" version="0.1" byte_order="LittleEndian" compressor="vtkZLibDataCompressor">
<UnstructuredGrid>
<Piece NumberOfPoints="120" NumberOfCells="30">
<Points>
<DataArray type="Float32" NumberOfComponents="3" format="ascii">
0.000000e+00 8.500000e-01 0.000000e+00
0.000000e+00 1.000000e+00 0.000000e+00
4.448556e-02 8.488351e-01 0.000000e+00
5.233596e-02 9.986295e-01 0.000000e+00
4.448556e-02 8.488351e-01 0.000000e+00
5.233596e-02 9.986295e-01 0.000000e+00
8.884919e-02 8.453436e-01 0.000000e+00
1.045285e-01 9.945219e-01 0.000000e+00
8.884919e-02 8.453436e-01 0.000000e+00
1.045285e-01 9.945219e-01 0.000000e+00
1.329693e-01 8.395351e-01 0.000000e+00
1.564345e-01 9.876883e-01 0.000000e+00
1.329693e-01 8.395351e-01 0.000000e+00
1.564345e-01 9.876883e-01 0.000000e+00
1.767249e-01 8.314255e-01 0.000000e+00
2.079117e-01 9.781476e-01 0.000000e+00
1.767249e-01 8.314255e-01 0.000000e+00
2.079117e-01 9.781476e-01 0.000000e+00
2.199962e-01 8.210370e-01 0.000000e+00
2.588190e-01 9.659258e-01 0.000000e+00
2.199962e-01 8.210370e-01 0.000000e+00
2.588190e-01 9.659258e-01 0.000000e+00
2.626644e-01 8.083980e-01 0.000000e+00
3.090170e-01 9.510565e-01 0.000000e+00
2.626644e-01 8.083980e-01 0.000000e+00
3.090170e-01 9.510565e-01 0.000000e+00
3.046128e-01 7.935434e-01 0.000000e+00
3.583679e-01 9.335804e-01 0.000000e+00
3.046128e-01 7.935434e-01 0.000000e+00
3.583679e-01 9.335804e-01 0.000000e+00
3.457261e-01 7.765136e-01 0.000000e+00
4.067366e-01 9.135455e-01 0.000000e+00
3.457261e-01 7.765136e-01 0.000000e+00
4.067366e-01 9.135455e-01 0.000000e+00
3.858919e-01 7.573555e-01 0.000000e+00
4.539905e-01 8.910065e-01 0.000000e+00
3.858919e-01 7.573555e-01 0.000000e+00
4.539905e-01 8.910065e-01 0.000000e+00
4.250000e-01 7.361216e-01 0.000000e+00
5.000000e-01 8.660254e-01 0.000000e+00
4.250000e-01 7.361216e-01 0.000000e+00
5.000000e-01 8.660254e-01 0.000000e+00
4.629432e-01 7.128700e-01 0.000000e+00
5.446390e-01 8.386706e-01 0.000000e+00
4.629432e-01 7.128700e-01 0.000000e+00
5.446390e-01 8.386706e-01 0.000000e+00
4.996175e-01 6.876644e-01 0.000000e+00
5.877853e-01 8.090170e-01 0.000000e+00
4.996175e-01 6.876644e-01 0.000000e+00
5.877853e-01 8.090170e-01 0.000000e+00
5.349223e-01 6.605741e-01 0.000000e+00
6.293204e-01 7.771460e-01 0.000000e+00
5.349223e-01 6.605741e-01 0.000000e+00
6.293204e-01 7.771460e-01 0.000000e+00
5.687610e-01 6.316731e-01 0.000000e+00
6.691306e-01 7.431448e-01 0.000000e+00
5.687610e-01 6.316731e-01 0.000000e+00
6.691306e-01 7.431448e-01 0.000000e+00
6.010408e-01 6.010408e-01 0.000000e+00
7.071068e-01 7.071068e-01 0.000000e+00
6.010408e-01 6.010408e-01 0.000000e+00
7.071068e-01 7.071068e-01 0.000000e+00
6.316731e-01 5.687610e-01 0.000000e+00
7.431448e-01 6.691306e-01 0.000000e+00
6.316731e-01 5.687610e-01 0.000000e+00
7.431448e-01 6.691306e-01 0.000000e+00
6.605741e-01 5.349223e-01 0.000000e+00
7.771460e-01 6.293204e-01 0.000000e+00
6.605741e-01 5.349223e-01 0.000000e+00
7.771460e-01 6.293204e-01 0.000000e+00
6.876644e-01 4.996175e-01 0.000000e+00
8.090170e-01 5.877853e-01 0.000000e+00
6.876644e-01 4.996175e-01 0.000000e+00
8.090170e-01 5.877853e-01 0.000000e+00
7.128700e-01 4.629432e-01 0.000000e+00
8.386706e-01 5.446390e-01 0.000000e+00
7.128700e-01 4.629432e-01 0.000000e+00
8.386706e-01 5.446390e-01 0.000000e+00
7.361216e-01 4.250000e-01 0.000000e+00
8.660254e-01 5.000000e-01 0.000000e+00
7.361216e-01 4.250000e-01 0.000000e+00
8.660254e-01 5.000000e-01 0.000000e+00
7.573555e-01 3.858919e-01 0.000000e+00
8.910065e-01 4.539905e-01 0.000000e+00
7.573555e-01 3.858919e-01 0.000000e+00
8.910065e-01 4.539905e-01 0.000000e+00
7.765136e-01 3.457261e-01 0.000000e+00
9.135455e-01 4.067366e-01 0.000000e+00
7.765136e-01 3.457261e-01 0.000000e+00
9.135455e-01 4.067366e-01 0.000000e+00
7.935434e-01 3.046128e-01 0.000000e+00
9.335804e-01 3.583679e-01 0.000000e+00
7.935434e-01 3.046128e-01 0.000000e+00
9.335804e-01 3.583679e-01 0.000000e+00
8.083980e-01 2.626644e-01 0.000000e+00
9.510565e-01 3.090170e-01 0.000000e+00
8.083980e-01 2.626644e-01 0.000000e+00
9.510565e-01 3.090170e-01 0.000000e+00
8.210370e-01 2.199962e-01 0.000000e+00
9.659258e-01 2.588190e-01 0.000000e+00
8.210370e-01 2.199962e-01 0.000000e+00
9.659258e-01 2.588190e-01 0.000000e+00
8.314255e-01 1.767249e-01 0.000000e+00
9.781476e-01 2.079117e-01 0.000000e+00
8.314255e-01 1.767249e-01 0.000000e+00
9.781476e-01 2.079117e-01 0.000000e+00
8.395351e-01 1.329693e-01 0.000000e+00
9.876883e-01 1.564345e-01 0.000000e+00
8.395351e-01 1.329693e-01 0.000000e+00
9.876883e-01 1.564345e-01 0.000000e+00
8.453436e-01 8.884919e-02 0.000000e+00
9.945219e-01 1.045285e-01 0.000000e+00
8.453436e-01 8.884919e-02 0.000000e+00
9.945219e-01 1.045285e-01 0.000000e+00
8.488351e-01 4.448556e-02 0.000000e+00
9.986295e-01 5.233596e-02 0.000000e+00
8.488351e-01 4.448556e-02 0.000000e+00
9.986295e-01 5.233596e-02 0.000000e+00
8.500000e-01 4.162100e-12 0.000000e+00
1.000000e+00 4.896590e-12 0.000000e+00
</DataArray>
</Points>
<Cells>
<DataArray type="Int32" Name="connectivity" format="ascii">
0 1 3 2
4 5 7 6
8 9 11 10
12 13 15 14
16 17 19 18
20 21 23 22
24 25 27 26
28 29 31 30
32 33 35 34
36 37 39 38
40 41 43 42
44 45 47 46
48 49 51 50
52 53 55 54
56 57 59 58
60 61 63 62
64 65 67 66
68 69 71 70
72 73 75 74
76 77 79 78
80 81 83 82
84 85 87 86
88 89 91 90
92 93 95 94
96 97 99 98
100 101 103 102
104 105 107 106
108 109 111 110
112 113 115 114
116 117 119 118
</DataArray>
<DataArray type="Int32" Name="offsets" format="ascii">
4
8
12
16
20
24
28
32
36
40
44
48
52
56
60
64
68
72
76
80
84
88
92
96
100
104
108
112
116
120
</DataArray>
<DataArray type="UInt8" Name="types" format="ascii">
9
9
9
9
9
9
9
9
9
9
9
9
9
9
9
9
9
9
9
9
9
9
9
9
9
9
9
9
9
9
</DataArray>
</Cells>
<PointData>
<DataArray type="Float32" Name="V1" format="ascii">
0.000000e+00
0.000000e+00
0.000000e+00
0.000000e+00
0.000000e+00
0.000000e+00
0.000000e+00
0.000000e+00
0.000000e+00
0.000000e+00
0.000000e+00
0.000000e+00
0.000000e+00
0.000000e+00
0.000000e+00
0.000000e+00
0.000000e+00
0.000000e+00
0.000000e+00
0.000000e+00
0.000000e+00
0.000000e+00
0.000000e+00
0.000000e+00
0.000000e+00
0.000000e+00
0.000000e+00
0.000000e+00
0.000000e+00
0.000000e+00
0.000000e+00
0.000000e+00
0.000000e+00
0.000000e+00
0.000000e+00
0.000000e+00
0.000000e+00
0.000000e+00
0.000000e+00
0.000000e+00
0.000000e+00
0.000000e+00
0.000000e+00
0.000000e+00
0.000000e+00
0.000000e+00
0.000000e+00
0.000000e+00
0.000000e+00
0.000000e+00
0.000000e+00
0.000000e+00
0.000000e+00
0.000000e+00
0.000000e+00
0.000000e+00
0.000000e+00
0.000000e+00
0.000000e+00
0.000000e+00
0.000000e+00
0.000000e+00
0.000000e+00
0.000000e+00
0.000000e+00
0.000000e+00
0.000000e+00
0.000000e+00
0.000000e+00
0.000000e+00
0.000000e+00
0.000000e+00
0.000000e+00
0.000000e+00
0.000000e+00
0.000000e+00
0.000000e+00
0.000000e+00
0.000000e+00
0.000000e+00
0.000000e+00
0.000000e+00
0.000000e+00
0.000000e+00
0.000000e+00
0.000000e+00
0.000000e+00
0.000000e+00
0.000000e+00
0.000000e+00
0.000000e+00
0.000000e+00
0.000000e+00
0.000000e+00
0.000000e+00
0.000000e+00
0.000000e+00
0.000000e+00
0.000000e+00
0.000000e+00
0.000000e+00
0.000000e+00
0.000000e+00
0.000000e+00
0.000000e+00
0.000000e+00
0.000000e+00
0.000000e+00
0.000000e+00
0.000000e+00
0.000000e+00
0.000000e+00
0.000000e+00
0.000000e+00
0.000000e+00
0.000000e+00
0.000000e+00
0.000000e+00
0.000000e+00
0.000000e+00
</DataArray>
<DataArray type="Float32" Name="V2" format="ascii">
8.500000e-01
1.000000e+00
8.500000e-01
1.000000e+00
8.500000e-01
1.000000e+00
8.500000e-01
1.000000e+00
8.500000e-01
1.000000e+00
8.500000e-01
1.000000e+00
8.500000e-01
1.000000e+00
8.500000e-01
1.000000e+00
8.500000e-01
1.000000e+00
8.500000e-01
1.000000e+00
8.500000e-01
1.000000e+00
8.500000e-01
1.000000e+00
8.500000e-01
1.000000e+00
8.500000e-01
1.000000e+00
8.500000e-01
1.000000e+00
8.500000e-01
1.000000e+00
8.500000e-01
1.000000e+00
8.500000e-01
1.000000e+00
8.500000e-01
1.000000e+00
8.500000e-01
1.000000e+00
8.500000e-01
1.000000e+00
8.500000e-01
1.000000e+00
8.500000e-01
1.000000e+00
8.500000e-01
1.000000e+00
8.500000e-01
1.000000e+00
8.500000e-01
1.000000e+00
8.500000e-01
1.000000e+00
8.500000e-01
1.000000e+00
8.500000e-01
1.000000e+00
8.500000e-01
1.000000e+00
8.500000e-01
1.000000e+00
8.500000e-01
1.000000e+00
8.500000e-01
1.000000e+00
8.500000e-01
1.000000e+00
8.500000e-01
1.000000e+00
8.500000e-01
1.000000e+00
8.500000e-01
1.000000e+00
8.500000e-01
1.000000e+00
8.500000e-01
1.000000e+00
8.500000e-01
1.000000e+00
8.500000e-01
1.000000e+00
8.500000e-01
1.000000e+00
8.500000e-01
1.000000e+00
8.500000e-01
1.000000e+00
8.500000e-01
1.000000e+00
8.500000e-01
1.000000e+00
8.500000e-01
1.000000e+00
8.500000e-01
1.000000e+00
8.500000e-01
1.000000e+00
8.500000e-01
1.000000e+00
8.500000e-01
1.000000e+00
8.500000e-01
1.000000e+00
8.500000e-01
1.000000e+00
8.500000e-01
1.000000e+00
8.500000e-01
1.000000e+00
8.500000e-01
1.000000e+00
8.500000e-01
1.000000e+00
8.500000e-01
1.000000e+00
8.500000e-01
1.000000e+00
8.500000e-01
1.000000e+00
</DataArray>
<DataArray type="Float32" Name="V3" format="ascii">
0.000000e+00
0.000000e+00
0.000000e+00
0.000000e+00
0.000000e+00
0.000000e+00
0.000000e+00
0.000000e+00
0.000000e+00
0.000000e+00
0.000000e+00
0.000000e+00
0.000000e+00
0.000000e+00
0.000000e+00
0.000000e+00
0.000000e+00
0.000000e+00
0.000000e+00
0.000000e+00
0.000000e+00
0.000000e+00
0.000000e+00
0.000000e+00
0.000000e+00
0.000000e+00
0.000000e+00
0.000000e+00
0.000000e+00
0.000000e+00
0.000000e+00
0.000000e+00
0.000000e+00
0.000000e+00
0.000000e+00
0.000000e+00
0.000000e+00
0.000000e+00
0.000000e+00
0.000000e+00
0.000000e+00
0.000000e+00
0.000000e+00
0.000000e+00
0.000000e+00
0.000000e+00
0.000000e+00
0.000000e+00
0.000000e+00
0.000000e+00
0.000000e+00
0.000000e+00
0.000000e+00
0.000000e+00
0.000000e+00
0.000000e+00
0.000000e+00
0.000000e+00
0.000000e+00
0.000000e+00
0.000000e+00
0.000000e+00
0.000000e+00
0.000000e+00
0.000000e+00
0.000000e+00
0.000000e+00
0.000000e+00
0.000000e+00
0.000000e+00
0.000000e+00
0.000000e+00
0.000000e+00
0.000000e+00
0.000000e+00
0.000000e+00
0.000000e+00
0.000000e+00
0.000000e+00
0.000000e+00
0.000000e+00
0.000000e+00
0.000000e+00
0.000000e+00
0.000000e+00
0.000000e+00
0.000000e+00
0.000000e+00
0.000000e+00
0.000000e+00
0.000000e+00
0.000000e+00
0.000000e+00
0.000000e+00
0.000000e+00
0.000000e+00
0.000000e+00
0.000000e+00
0.000000e+00
0.000000e+00
0.000000e+00
0.000000e+00
0.000000e+00
0.000000e+00
0.000000e+00
0.000000e+00
0.000000e+00
0.000000e+00
0.000000e+00
0.000000e+00
0.000000e+00
0.000000e+00
0.000000e+00
0.000000e+00
0.000000e+00
0.000000e+00
0.000000e+00
0.000000e+00
0.000000e+00
0.000000e+00
</DataArray>
<DataArray type="Float32" Name="V4" format="ascii">
8.500000e-01
1.000000e+00
8.500000e-01
1.000000e+00
8.500000e-01
1.000000e+00
8.500000e-01
1.000000e+00
8.500000e-01
1.000000e+00
8.500000e-01
1.000000e+00
8.500000e-01
1.000000e+00
8.500000e-01
1.000000e+00
8.500000e-01
1.000000e+00
8.500000e-01
1.000000e+00
8.500000e-01
1.000000e+00
8.500000e-01
1.000000e+00
8.500000e-01
1.000000e+00
8.500000e-01
1.000000e+00
8.500000e-01
1.000000e+00
8.500000e-01
1.000000e+00
8.500000e-01
1.000000e+00
8.500000e-01
1.000000e+00
8.500000e-01
1.000000e+00
8.500000e-01
1.000000e+00
8.500000e-01
1.000000e+00
8.500000e-01
1.000000e+00
8.500000e-01
1.000000e+00
8.500000e-01
1.000000e+00
8.500000e-01
1.000000e+00
8.500000e-01
1.000000e+00
8.500000e-01
1.000000e+00
8.500000e-01
1.000000e+00
8.500000e-01
1.000000e+00
8.500000e-01
1.000000e+00
8.500000e-01
1.000000e+00
8.500000e-01
1.000000e+00
8.500000e-01
1.000000e+00
8.500000e-01
1.000000e+00
8.500000e-01
1.000000e+00
8.500000e-01
1.000000e+00
8.500000e-01
1.000000e+00
8.500000e-01
1.000000e+00
8.500000e-01
1.000000e+00
8.500000e-01
1.000000e+00
8.500000e-01
1.000000e+00
8.500000e-01
1.000000e+00
8.500000e-01
1.000000e+00
8.500000e-01
1.000000e+00
8.500000e-01
1.000000e+00
8.500000e-01
1.000000e+00
8.500000e-01
1.000000e+00
8.500000e-01
1.000000e+00
8.500000e-01
1.000000e+00
8.500000e-01
1.000000e+00
8.500000e-01
1.000000e+00
8.500000e-01
1.000000e+00
8.500000e-01
1.000000e+00
8.500000e-01
1.000000e+00
8.500000e-01
1.000000e+00
8.500000e-01
1.000000e+00
8.500000e-01
1.000000e+00
8.500000e-01
1.000000e+00
8.500000e-01
1.000000e+00
8.500000e-01
1.000000e+00
</DataArray>
<DataArray type="Float32" Name="V5" format="ascii">
0.000000e+00
0.000000e+00
5.235988e-02
5.235988e-02
5.235988e-02
5.235988e-02
1.047198e-01
1.047198e-01
1.047198e-01
1.047198e-01
1.570796e-01
1.570796e-01
1.570796e-01
1.570796e-01
2.094395e-01
2.094395e-01
2.094395e-01
2.094395e-01
2.617994e-01
2.617994e-01
2.617994e-01
2.617994e-01
3.141593e-01
3.141593e-01
3.141593e-01
3.141593e-01
3.665191e-01
3.665191e-01
3.665191e-01
3.665191e-01
4.188790e-01
4.188790e-01
4.188790e-01
4.188790e-01
4.712389e-01
4.712389e-01
4.712389e-01
4.712389e-01
5.235988e-01
5.235988e-01
5.235988e-01
5.235988e-01
5.759587e-01
5.759587e-01
5.759587e-01
5.759587e-01
6.283185e-01
6.283185e-01
6.283185e-01
6.283185e-01
6.806784e-01
6.806784e-01
6.806784e-01
6.806784e-01
7.330383e-01
7.330383e-01
7.330383e-01
7.330383e-01
7.853982e-01
7.853982e-01
7.853982e-01
7.853982e-01
8.377580e-01
8.377580e-01
8.377580e-01
8.377580e-01
8.901179e-01
8.901179e-01
8.901179e-01
8.901179e-01
9.424778e-01
9.424778e-01
9.424778e-01
9.424778e-01
9.948377e-01
9.948377e-01
9.948377e-01
9.948377e-01
1.047198e+00
1.047198e+00
1.047198e+00
1.047198e+00
1.099557e+00
1.099557e+00
1.099557e+00
1.099557e+00
1.151917e+00
1.151917e+00
1.151917e+00
1.151917e+00
1.204277e+00
1.204277e+00
1.204277e+00
1.204277e+00
1.256637e+00
1.256637e+00
1.256637e+00
1.256637e+00
1.308997e+00
1.308997e+00
1.308997e+00
1.308997e+00
1.361357e+00
1.361357e+00
1.361357e+00
1.361357e+00
1.413717e+00
1.413717e+00
1.413717e+00
1.413717e+00
1.466077e+00
1.466077e+00
1.466077e+00
1.466077e+00
1.518436e+00
1.518436e+00
1.518436e+00
1.518436e+00
1.570796e+00
1.570796e+00
</DataArray>
</PointData>
</Piece></UnstructuredGrid>
</VTKFile>
