<?xml version="1.0"?>
<VTKFile type="UnstructuredGrid" version="0.1" byte_order="LittleEndian" compressor="vtkZLibDataCompressor">
<UnstructuredGrid>
<Piece NumberOfPoints="120" NumberOfCells="30">
<Points>
<DataArray type="Float32" NumberOfComponents="3" format="ascii">
0.000000e+00 8.030960e-01 0.000000e+00
0.000000e+00 9.100000e-01 0.000000e+00
5.748842e-02 8.031598e-01 0.000000e+00
5.741932e-02 9.100000e-01 0.000000e+00
5.748842e-02 8.031598e-01 0.000000e+00
5.741932e-02 9.100000e-01 0.000000e+00
1.149674e-01 8.033292e-01 0.000000e+00
1.148622e-01 9.100000e-01 0.000000e+00
1.149674e-01 8.033292e-01 0.000000e+00
1.148622e-01 9.100000e-01 0.000000e+00
1.724178e-01 8.036212e-01 0.000000e+00
1.723669e-01 9.100000e-01 0.000000e+00
1.724178e-01 8.036212e-01 0.000000e+00
1.723669e-01 9.100000e-01 0.000000e+00
2.298022e-01 8.040493e-01 0.000000e+00
2.300008e-01 9.100000e-01 0.000000e+00
2.298022e-01 8.040493e-01 0.000000e+00
2.300008e-01 9.100000e-01 0.000000e+00
2.870416e-01 8.046260e-01 0.000000e+00
2.878830e-01 9.100000e-01 0.000000e+00
2.870416e-01 8.046260e-01 0.000000e+00
2.878830e-01 9.100000e-01 0.000000e+00
3.439756e-01 8.053376e-01 0.000000e+00
3.462015e-01 9.100000e-01 0.000000e+00
3.439756e-01 8.053376e-01 0.000000e+00
3.462015e-01 9.100000e-01 0.000000e+00
4.002981e-01 8.060667e-01 0.000000e+00
4.051905e-01 9.100000e-01 0.000000e+00
4.002981e-01 8.060667e-01 0.000000e+00
4.051905e-01 9.100000e-01 0.000000e+00
4.554949e-01 8.063317e-01 0.000000e+00
4.649623e-01 9.100000e-01 0.000000e+00
4.554949e-01 8.063317e-01 0.000000e+00
4.649623e-01 9.100000e-01 0.000000e+00
5.095632e-01 8.054753e-01 0.000000e+00
5.246628e-01 9.096368e-01 0.000000e+00
5.095632e-01 8.054753e-01 0.000000e+00
5.246628e-01 9.096368e-01 0.000000e+00
5.625026e-01 8.000112e-01 0.000000e+00
5.837025e-01 9.026003e-01 0.000000e+00
5.625026e-01 8.000112e-01 0.000000e+00
5.837025e-01 9.026003e-01 0.000000e+00
6.136959e-01 7.897217e-01 0.000000e+00
6.424128e-01 8.894507e-01 0.000000e+00
6.136959e-01 7.897217e-01 0.000000e+00
6.424128e-01 8.894507e-01 0.000000e+00
6.634186e-01 7.744084e-01 0.000000e+00
6.999841e-01 8.706253e-01 0.000000e+00
6.634186e-01 7.744084e-01 0.000000e+00
6.999841e-01 8.706253e-01 0.000000e+00
7.115618e-01 7.544249e-01 0.000000e+00
7.557221e-01 8.465720e-01 0.000000e+00
7.115618e-01 7.544249e-01 0.000000e+00
7.557221e-01 8.465720e-01 0.000000e+00
7.579321e-01 7.301242e-01 0.000000e+00
8.091616e-01 8.177739e-01 0.000000e+00
7.579321e-01 7.301242e-01 0.000000e+00
8.091616e-01 8.177739e-01 0.000000e+00
8.023278e-01 7.018668e-01 0.000000e+00
8.600074e-01 7.847099e-01 0.000000e+00
8.023278e-01 7.018668e-01 0.000000e+00
8.600074e-01 7.847099e-01 0.000000e+00
8.445609e-01 6.700011e-01 0.000000e+00
9.080644e-01 7.478189e-01 0.000000e+00
8.445609e-01 6.700011e-01 0.000000e+00
9.080644e-01 7.478189e-01 0.000000e+00
8.844647e-01 6.348573e-01 0.000000e+00
9.531973e-01 7.074949e-01 0.000000e+00
8.844647e-01 6.348573e-01 0.000000e+00
9.531973e-01 7.074949e-01 0.000000e+00
9.218942e-01 5.967454e-01 0.000000e+00
9.953052e-01 6.640901e-01 0.000000e+00
9.218942e-01 5.967454e-01 0.000000e+00
9.953052e-01 6.640901e-01 0.000000e+00
9.567243e-01 5.559552e-01 0.000000e+00
1.034308e+00 6.179219e-01 0.000000e+00
9.567243e-01 5.559552e-01 0.000000e+00
1.034308e+00 6.179219e-01 0.000000e+00
9.888467e-01 5.127586e-01 0.000000e+00
1.070138e+00 5.692799e-01 0.000000e+00
9.888467e-01 5.127586e-01 0.000000e+00
1.070138e+00 5.692799e-01 0.000000e+00
1.018168e+00 4.674117e-01 0.000000e+00
1.102736e+00 5.184317e-01 0.000000e+00
1.018168e+00 4.674117e-01 0.000000e+00
1.102736e+00 5.184317e-01 0.000000e+00
1.044606e+00 4.201578e-01 0.000000e+00
1.132049e+00 4.656288e-01 0.000000e+00
1.044606e+00 4.201578e-01 0.000000e+00
1.132049e+00 4.656288e-01 0.000000e+00
1.068092e+00 3.712294e-01 0.000000e+00
1.158031e+00 4.111098e-01 0.000000e+00
1.068092e+00 3.712294e-01 0.000000e+00
1.158031e+00 4.111098e-01 0.000000e+00
1.088564e+00 3.208507e-01 0.000000e+00
1.180637e+00 3.551039e-01 0.000000e+00
1.088564e+00 3.208507e-01 0.000000e+00
1.180637e+00 3.551039e-01 0.000000e+00
1.105972e+00 2.692392e-01 0.000000e+00
1.199831e+00 2.978335e-01 0.000000e+00
1.105972e+00 2.692392e-01 0.000000e+00
1.199831e+00 2.978335e-01 0.000000e+00
1.120273e+00 2.166070e-01 0.000000e+00
1.215580e+00 2.395156e-01 0.000000e+00
1.120273e+00 2.166070e-01 0.000000e+00
1.215580e+00 2.395156e-01 0.000000e+00
1.131431e+00 1.631626e-01 0.000000e+00
1.227858e+00 1.803635e-01 0.000000e+00
1.131431e+00 1.631626e-01 0.000000e+00
1.227858e+00 1.803635e-01 0.000000e+00
1.139420e+00 1.091112e-01 0.000000e+00
1.236644e+00 1.205879e-01 0.000000e+00
1.139420e+00 1.091112e-01 0.000000e+00
1.236644e+00 1.205879e-01 0.000000e+00
1.144221e+00 5.465633e-02 0.000000e+00
1.241921e+00 6.039749e-02 0.000000e+00
1.144221e+00 5.465633e-02 0.000000e+00
1.241921e+00 6.039749e-02 0.000000e+00
1.145823e+00 5.610620e-12 0.000000e+00
1.243681e+00 6.089790e-12 0.000000e+00
</DataArray>
</Points>
<Cells>
<DataArray type="Int32" Name="connectivity" format="ascii">
0 1 3 2
4 5 7 6
8 9 11 10
12 13 15 14
16 17 19 18
20 21 23 22
24 25 27 26
28 29 31 30
32 33 35 34
36 37 39 38
40 41 43 42
44 45 47 46
48 49 51 50
52 53 55 54
56 57 59 58
60 61 63 62
64 65 67 66
68 69 71 70
72 73 75 74
76 77 79 78
80 81 83 82
84 85 87 86
88 89 91 90
92 93 95 94
96 97 99 98
100 101 103 102
104 105 107 106
108 109 111 110
112 113 115 114
116 117 119 118
</DataArray>
<DataArray type="Int32" Name="offsets" format="ascii">
4
8
12
16
20
24
28
32
36
40
44
48
52
56
60
64
68
72
76
80
84
88
92
96
100
104
108
112
116
120
</DataArray>
<DataArray type="UInt8" Name="types" format="ascii">
9
9
9
9
9
9
9
9
9
9
9
9
9
9
9
9
9
9
9
9
9
9
9
9
9
9
9
9
9
9
</DataArray>
</Cells>
<PointData>
<DataArray type="Float32" Name="V1" format="ascii">
1.266305e+01
-3.620702e-01
1.268082e+01
-3.443040e-01
1.269502e+01
-3.550787e-01
1.274102e+01
-3.090783e-01
1.276476e+01
-3.263814e-01
1.284218e+01
-2.489566e-01
1.285724e+01
-2.619785e-01
1.296748e+01
-1.517391e-01
1.293649e+01
-1.353640e-01
1.308478e+01
1.293109e-02
1.293164e+01
1.116240e-01
1.313389e+01
3.138741e-01
1.271484e+01
6.014846e-01
1.301516e+01
9.017990e-01
1.208310e+01
1.573702e+00
1.261887e+01
2.109464e+00
1.076231e+01
3.664213e+00
1.170758e+01
4.609480e+00
9.911805e+00
6.189129e+00
1.044678e+01
6.724105e+00
9.695277e+00
7.239449e+00
1.004510e+01
7.589273e+00
9.738467e+00
7.842934e+00
1.007223e+01
8.176697e+00
9.991511e+00
8.247681e+00
1.030699e+01
8.563157e+00
1.034289e+01
8.534691e+00
1.063317e+01
8.824974e+00
1.072849e+01
8.746177e+00
1.099064e+01
9.008333e+00
1.111234e+01
8.907901e+00
1.134611e+01
9.141672e+00
1.147552e+01
9.035627e+00
1.168218e+01
9.242282e+00
1.180895e+01
9.139246e+00
1.199046e+01
9.320761e+00
1.210913e+01
9.225070e+00
1.226771e+01
9.383646e+00
1.237567e+01
9.297219e+00
1.251348e+01
9.435029e+00
1.260974e+01
9.358456e+00
1.272879e+01
9.477508e+00
1.281326e+01
9.410685e+00
1.291535e+01
9.512774e+00
1.298838e+01
9.455264e+00
1.307507e+01
9.541952e+00
1.313724e+01
9.493188e+00
1.320986e+01
9.565808e+00
1.326179e+01
9.525209e+00
1.332145e+01
9.584877e+00
1.336374e+01
9.551904e+00
1.341137e+01
9.599534e+00
1.344454e+01
9.573722e+00
1.348086e+01
9.610040e+00
1.350535e+01
9.591012e+00
1.353090e+01
9.616569e+00
1.354704e+01
9.604041e+00
1.356223e+01
9.619223e+00
1.357024e+01
9.613006e+00
1.357528e+01
9.618041e+00
</DataArray>
<DataArray type="Float32" Name="V2" format="ascii">
8.030960e-01
9.100000e-01
8.050679e-01
9.117580e-01
8.050679e-01
9.117580e-01
8.109458e-01
9.170213e-01
8.109458e-01
9.170213e-01
8.206994e-01
9.257605e-01
8.206994e-01
9.257605e-01
8.342574e-01
9.379342e-01
8.342574e-01
9.379342e-01
8.515008e-01
9.535021e-01
8.515008e-01
9.535021e-01
8.722159e-01
9.724436e-01
8.722159e-01
9.724436e-01
8.959821e-01
9.947655e-01
8.959821e-01
9.947655e-01
9.218871e-01
1.020444e+00
9.218871e-01
1.020444e+00
9.490206e-01
1.048684e+00
9.490206e-01
1.048684e+00
9.740813e-01
1.073526e+00
9.740813e-01
1.073526e+00
9.965591e-01
1.095839e+00
9.965591e-01
1.095839e+00
1.016457e+00
1.115791e+00
1.016457e+00
1.115791e+00
1.034099e+00
1.133501e+00
1.034099e+00
1.133501e+00
1.049744e+00
1.149159e+00
1.049744e+00
1.149159e+00
1.063626e+00
1.162991e+00
1.063626e+00
1.162991e+00
1.075949e+00
1.175212e+00
1.075949e+00
1.175212e+00
1.086887e+00
1.186014e+00
1.086887e+00
1.186014e+00
1.096586e+00
1.195561e+00
1.096586e+00
1.195561e+00
1.105171e+00
1.203988e+00
1.105171e+00
1.203988e+00
1.112746e+00
1.211406e+00
1.112746e+00
1.211406e+00
1.119395e+00
1.217908e+00
1.119395e+00
1.217908e+00
1.125189e+00
1.223567e+00
1.125189e+00
1.223567e+00
1.130186e+00
1.228443e+00
1.130186e+00
1.228443e+00
1.134435e+00
1.232586e+00
1.134435e+00
1.232586e+00
1.137971e+00
1.236033e+00
1.137971e+00
1.236033e+00
1.140827e+00
1.238815e+00
1.140827e+00
1.238815e+00
1.143025e+00
1.240956e+00
1.143025e+00
1.240956e+00
1.144583e+00
1.242474e+00
1.144583e+00
1.242474e+00
1.145513e+00
1.243380e+00
1.145513e+00
1.243380e+00
1.145823e+00
1.243681e+00
</DataArray>
<DataArray type="Float32" Name="V3" format="ascii">
0.000000e+00
0.000000e+00
1.537550e-02
9.714907e-03
1.537550e-02
9.714907e-03
3.036684e-02
1.911203e-02
3.036684e-02
1.911203e-02
4.458099e-02
2.788940e-02
4.458099e-02
2.788940e-02
5.760919e-02
3.577513e-02
5.760919e-02
3.577513e-02
6.900833e-02
4.254829e-02
6.900833e-02
4.254829e-02
7.827726e-02
4.805172e-02
7.827726e-02
4.805172e-02
8.484200e-02
5.216309e-02
8.484200e-02
5.216309e-02
8.815065e-02
5.463383e-02
8.815065e-02
5.463383e-02
8.834598e-02
5.451153e-02
8.834598e-02
5.451153e-02
8.713598e-02
5.420107e-02
8.713598e-02
5.420107e-02
8.457538e-02
5.434314e-02
8.457538e-02
5.434314e-02
8.153113e-02
5.455830e-02
8.153113e-02
5.455830e-02
7.821241e-02
5.454135e-02
7.821241e-02
5.454135e-02
7.470491e-02
5.412669e-02
7.470491e-02
5.412669e-02
7.103668e-02
5.324338e-02
7.103668e-02
5.324338e-02
6.721373e-02
5.187599e-02
6.721373e-02
5.187599e-02
6.323486e-02
5.003973e-02
6.323486e-02
5.003973e-02
5.909865e-02
4.776553e-02
5.909865e-02
4.776553e-02
5.480611e-02
4.509148e-02
5.480611e-02
4.509148e-02
5.036139e-02
4.205806e-02
5.036139e-02
4.205806e-02
4.577162e-02
3.870555e-02
4.577162e-02
3.870555e-02
4.104642e-02
3.507285e-02
4.104642e-02
3.507285e-02
3.619740e-02
3.119698e-02
3.619740e-02
3.119698e-02
3.123770e-02
2.711298e-02
3.123770e-02
2.711298e-02
2.618157e-02
2.285405e-02
2.618157e-02
2.285405e-02
2.104411e-02
1.845178e-02
2.104411e-02
1.845178e-02
1.584099e-02
1.393643e-02
1.584099e-02
1.393643e-02
1.058832e-02
9.337163e-03
1.058832e-02
9.337163e-03
5.302477e-03
4.682394e-03
5.302477e-03
4.682394e-03
0.000000e+00
0.000000e+00
</DataArray>
<DataArray type="Float32" Name="V4" format="ascii">
8.500000e-01
1.000000e+00
8.500000e-01
1.000000e+00
8.500000e-01
1.000000e+00
8.500000e-01
1.000000e+00
8.500000e-01
1.000000e+00
8.500000e-01
1.000000e+00
8.500000e-01
1.000000e+00
8.500000e-01
1.000000e+00
8.500000e-01
1.000000e+00
8.500000e-01
1.000000e+00
8.500000e-01
1.000000e+00
8.500000e-01
1.000000e+00
8.500000e-01
1.000000e+00
8.500000e-01
1.000000e+00
8.500000e-01
1.000000e+00
8.500000e-01
1.000000e+00
8.500000e-01
1.000000e+00
8.500000e-01
1.000000e+00
8.500000e-01
1.000000e+00
8.500000e-01
1.000000e+00
8.500000e-01
1.000000e+00
8.500000e-01
1.000000e+00
8.500000e-01
1.000000e+00
8.500000e-01
1.000000e+00
8.500000e-01
1.000000e+00
8.500000e-01
1.000000e+00
8.500000e-01
1.000000e+00
8.500000e-01
1.000000e+00
8.500000e-01
1.000000e+00
8.500000e-01
1.000000e+00
8.500000e-01
1.000000e+00
8.500000e-01
1.000000e+00
8.500000e-01
1.000000e+00
8.500000e-01
1.000000e+00
8.500000e-01
1.000000e+00
8.500000e-01
1.000000e+00
8.500000e-01
1.000000e+00
8.500000e-01
1.000000e+00
8.500000e-01
1.000000e+00
8.500000e-01
1.000000e+00
8.500000e-01
1.000000e+00
8.500000e-01
1.000000e+00
8.500000e-01
1.000000e+00
8.500000e-01
1.000000e+00
8.500000e-01
1.000000e+00
8.500000e-01
1.000000e+00
8.500000e-01
1.000000e+00
8.500000e-01
1.000000e+00
8.500000e-01
1.000000e+00
8.500000e-01
1.000000e+00
8.500000e-01
1.000000e+00
8.500000e-01
1.000000e+00
8.500000e-01
1.000000e+00
8.500000e-01
1.000000e+00
8.500000e-01
1.000000e+00
8.500000e-01
1.000000e+00
8.500000e-01
1.000000e+00
8.500000e-01
1.000000e+00
8.500000e-01
1.000000e+00
8.500000e-01
1.000000e+00
</DataArray>
<DataArray type="Float32" Name="V5" format="ascii">
0.000000e+00
0.000000e+00
5.235988e-02
5.235988e-02
5.235988e-02
5.235988e-02
1.047198e-01
1.047198e-01
1.047198e-01
1.047198e-01
1.570796e-01
1.570796e-01
1.570796e-01
1.570796e-01
2.094395e-01
2.094395e-01
2.094395e-01
2.094395e-01
2.617994e-01
2.617994e-01
2.617994e-01
2.617994e-01
3.141593e-01
3.141593e-01
3.141593e-01
3.141593e-01
3.665191e-01
3.665191e-01
3.665191e-01
3.665191e-01
4.188790e-01
4.188790e-01
4.188790e-01
4.188790e-01
4.712389e-01
4.712389e-01
4.712389e-01
4.712389e-01
5.235988e-01
5.235988e-01
5.235988e-01
5.235988e-01
5.759587e-01
5.759587e-01
5.759587e-01
5.759587e-01
6.283185e-01
6.283185e-01
6.283185e-01
6.283185e-01
6.806784e-01
6.806784e-01
6.806784e-01
6.806784e-01
7.330383e-01
7.330383e-01
7.330383e-01
7.330383e-01
7.853982e-01
7.853982e-01
7.853982e-01
7.853982e-01
8.377580e-01
8.377580e-01
8.377580e-01
8.377580e-01
8.901179e-01
8.901179e-01
8.901179e-01
8.901179e-01
9.424778e-01
9.424778e-01
9.424778e-01
9.424778e-01
9.948377e-01
9.948377e-01
9.948377e-01
9.948377e-01
1.047198e+00
1.047198e+00
1.047198e+00
1.047198e+00
1.099557e+00
1.099557e+00
1.099557e+00
1.099557e+00
1.151917e+00
1.151917e+00
1.151917e+00
1.151917e+00
1.204277e+00
1.204277e+00
1.204277e+00
1.204277e+00
1.256637e+00
1.256637e+00
1.256637e+00
1.256637e+00
1.308997e+00
1.308997e+00
1.308997e+00
1.308997e+00
1.361357e+00
1.361357e+00
1.361357e+00
1.361357e+00
1.413717e+00
1.413717e+00
1.413717e+00
1.413717e+00
1.466077e+00
1.466077e+00
1.466077e+00
1.466077e+00
1.518436e+00
1.518436e+00
1.518436e+00
1.518436e+00
1.570796e+00
1.570796e+00
</DataArray>
</PointData>
</Piece></UnstructuredGrid>
</VTKFile>
