<?xml version="1.0"?>
<VTKFile type="UnstructuredGrid" version="0.1" byte_order="LittleEndian" compressor="vtkZLibDataCompressor">
<UnstructuredGrid>
<Piece NumberOfPoints="120" NumberOfCells="30">
<Points>
<DataArray type="Float32" NumberOfComponents="3" format="ascii">
0.000000e+00 6.705682e-01 0.000000e+00
0.000000e+00 7.700000e-01 0.000000e+00
5.961580e-02 6.706212e-01 0.000000e+00
5.951647e-02 7.700000e-01 0.000000e+00
5.961580e-02 6.706212e-01 0.000000e+00
5.951647e-02 7.700000e-01 0.000000e+00
1.192300e-01 6.707521e-01 0.000000e+00
1.190318e-01 7.700000e-01 0.000000e+00
1.192300e-01 6.707521e-01 0.000000e+00
1.190318e-01 7.700000e-01 0.000000e+00
1.788382e-01 6.709707e-01 0.000000e+00
1.785470e-01 7.700000e-01 0.000000e+00
1.788382e-01 6.709707e-01 0.000000e+00
1.785470e-01 7.700000e-01 0.000000e+00
2.384363e-01 6.712775e-01 0.000000e+00
2.380638e-01 7.700000e-01 0.000000e+00
2.384363e-01 6.712775e-01 0.000000e+00
2.380638e-01 7.700000e-01 0.000000e+00
2.980175e-01 6.716741e-01 0.000000e+00
2.975894e-01 7.700000e-01 0.000000e+00
2.980175e-01 6.716741e-01 0.000000e+00
2.975894e-01 7.700000e-01 0.000000e+00
3.575696e-01 6.721641e-01 0.000000e+00
3.571405e-01 7.700000e-01 0.000000e+00
3.575696e-01 6.721641e-01 0.000000e+00
3.571405e-01 7.700000e-01 0.000000e+00
4.170698e-01 6.727544e-01 0.000000e+00
4.167530e-01 7.700000e-01 0.000000e+00
4.170698e-01 6.727544e-01 0.000000e+00
4.167530e-01 7.700000e-01 0.000000e+00
4.764736e-01 6.734558e-01 0.000000e+00
4.764985e-01 7.700000e-01 0.000000e+00
4.764736e-01 6.734558e-01 0.000000e+00
4.764985e-01 7.700000e-01 0.000000e+00
5.356924e-01 6.742788e-01 0.000000e+00
5.365083e-01 7.700000e-01 0.000000e+00
5.356924e-01 6.742788e-01 0.000000e+00
5.365083e-01 7.700000e-01 0.000000e+00
5.945509e-01 6.752139e-01 0.000000e+00
5.969980e-01 7.700000e-01 0.000000e+00
5.945509e-01 6.752139e-01 0.000000e+00
5.969980e-01 7.700000e-01 0.000000e+00
6.527095e-01 6.761556e-01 0.000000e+00
6.582509e-01 7.700000e-01 0.000000e+00
6.527095e-01 6.761556e-01 0.000000e+00
6.582509e-01 7.700000e-01 0.000000e+00
7.095836e-01 6.766468e-01 0.000000e+00
7.203914e-01 7.700000e-01 0.000000e+00
7.095836e-01 6.766468e-01 0.000000e+00
7.203914e-01 7.700000e-01 0.000000e+00
7.652115e-01 6.758109e-01 0.000000e+00
7.820885e-01 7.691522e-01 0.000000e+00
7.652115e-01 6.758109e-01 0.000000e+00
7.820885e-01 7.691522e-01 0.000000e+00
8.192862e-01 6.688596e-01 0.000000e+00
8.427197e-01 7.598055e-01 0.000000e+00
8.192862e-01 6.688596e-01 0.000000e+00
8.427197e-01 7.598055e-01 0.000000e+00
8.710995e-01 6.556456e-01 0.000000e+00
9.025067e-01 7.429236e-01 0.000000e+00
8.710995e-01 6.556456e-01 0.000000e+00
9.025067e-01 7.429236e-01 0.000000e+00
9.207073e-01 6.362384e-01 0.000000e+00
9.602595e-01 7.190402e-01 0.000000e+00
9.207073e-01 6.362384e-01 0.000000e+00
9.602595e-01 7.190402e-01 0.000000e+00
9.678677e-01 6.112431e-01 0.000000e+00
1.015083e+00 6.889098e-01 0.000000e+00
9.678677e-01 6.112431e-01 0.000000e+00
1.015083e+00 6.889098e-01 0.000000e+00
1.012307e+00 5.812284e-01 0.000000e+00
1.066418e+00 6.533042e-01 0.000000e+00
1.012307e+00 5.812284e-01 0.000000e+00
1.066418e+00 6.533042e-01 0.000000e+00
1.053783e+00 5.467562e-01 0.000000e+00
1.113950e+00 6.129600e-01 0.000000e+00
1.053783e+00 5.467562e-01 0.000000e+00
1.113950e+00 6.129600e-01 0.000000e+00
1.092095e+00 5.083550e-01 0.000000e+00
1.157503e+00 5.685346e-01 0.000000e+00
1.092095e+00 5.083550e-01 0.000000e+00
1.157503e+00 5.685346e-01 0.000000e+00
1.127086e+00 4.665157e-01 0.000000e+00
1.196985e+00 5.206042e-01 0.000000e+00
1.127086e+00 4.665157e-01 0.000000e+00
1.196985e+00 5.206042e-01 0.000000e+00
1.158632e+00 4.216901e-01 0.000000e+00
1.232347e+00 4.696727e-01 0.000000e+00
1.158632e+00 4.216901e-01 0.000000e+00
1.232347e+00 4.696727e-01 0.000000e+00
1.186638e+00 3.742938e-01 0.000000e+00
1.263567e+00 4.161844e-01 0.000000e+00
1.186638e+00 3.742938e-01 0.000000e+00
1.263567e+00 4.161844e-01 0.000000e+00
1.211030e+00 3.247107e-01 0.000000e+00
1.290633e+00 3.605371e-01 0.000000e+00
1.211030e+00 3.247107e-01 0.000000e+00
1.290633e+00 3.605371e-01 0.000000e+00
1.231751e+00 2.732978e-01 0.000000e+00
1.313541e+00 3.030924e-01 0.000000e+00
1.231751e+00 2.732978e-01 0.000000e+00
1.313541e+00 3.030924e-01 0.000000e+00
1.248758e+00 2.203902e-01 0.000000e+00
1.332286e+00 2.441843e-01 0.000000e+00
1.248758e+00 2.203902e-01 0.000000e+00
1.332286e+00 2.441843e-01 0.000000e+00
1.262017e+00 1.663061e-01 0.000000e+00
1.346867e+00 1.841268e-01 0.000000e+00
1.262017e+00 1.663061e-01 0.000000e+00
1.346867e+00 1.841268e-01 0.000000e+00
1.271504e+00 1.113503e-01 0.000000e+00
1.357284e+00 1.232187e-01 0.000000e+00
1.271504e+00 1.113503e-01 0.000000e+00
1.357284e+00 1.232187e-01 0.000000e+00
1.277203e+00 5.581843e-02 0.000000e+00
1.363534e+00 6.174900e-02 0.000000e+00
1.277203e+00 5.581843e-02 0.000000e+00
1.363534e+00 6.174900e-02 0.000000e+00
1.279104e+00 6.263250e-12 0.000000e+00
1.365618e+00 6.686870e-12 0.000000e+00
</DataArray>
</Points>
<Cells>
<DataArray type="Int32" Name="connectivity" format="ascii">
0 1 3 2
4 5 7 6
8 9 11 10
12 13 15 14
16 17 19 18
20 21 23 22
24 25 27 26
28 29 31 30
32 33 35 34
36 37 39 38
40 41 43 42
44 45 47 46
48 49 51 50
52 53 55 54
56 57 59 58
60 61 63 62
64 65 67 66
68 69 71 70
72 73 75 74
76 77 79 78
80 81 83 82
84 85 87 86
88 89 91 90
92 93 95 94
96 97 99 98
100 101 103 102
104 105 107 106
108 109 111 110
112 113 115 114
116 117 119 118
</DataArray>
<DataArray type="Int32" Name="offsets" format="ascii">
4
8
12
16
20
24
28
32
36
40
44
48
52
56
60
64
68
72
76
80
84
88
92
96
100
104
108
112
116
120
</DataArray>
<DataArray type="UInt8" Name="types" format="ascii">
9
9
9
9
9
9
9
9
9
9
9
9
9
9
9
9
9
9
9
9
9
9
9
9
9
9
9
9
9
9
</DataArray>
</Cells>
<PointData>
<DataArray type="Float32" Name="V1" format="ascii">
1.615033e+01
-6.256366e-01
1.617285e+01
-6.031209e-01
1.620362e+01
-6.241539e-01
1.626373e+01
-5.640410e-01
1.632699e+01
-6.065612e-01
1.642869e+01
-5.048658e-01
1.652276e+01
-5.690877e-01
1.666699e+01
-4.248646e-01
1.679074e+01
-5.100698e-01
1.697894e+01
-3.218758e-01
1.712842e+01
-4.256489e-01
1.736276e+01
-1.913045e-01
1.752747e+01
-3.072316e-01
1.781142e+01
-2.328474e-02
1.796669e+01
-1.360360e-01
1.830634e+01
2.036131e-01
1.839842e+01
1.284002e-01
1.880574e+01
5.357176e-01
1.872460e+01
5.719847e-01
1.922474e+01
1.072124e+00
1.875906e+01
1.374067e+00
1.941082e+01
2.025824e+00
1.817732e+01
2.906581e+00
1.915702e+01
3.886281e+00
1.654855e+01
6.170998e+00
1.808455e+01
7.707000e+00
1.573125e+01
9.673728e+00
1.667457e+01
1.061705e+01
1.576459e+01
1.122984e+01
1.651775e+01
1.198301e+01
1.625414e+01
1.220216e+01
1.698736e+01
1.293538e+01
1.705471e+01
1.288620e+01
1.775638e+01
1.358787e+01
1.798963e+01
1.339662e+01
1.864205e+01
1.404904e+01
1.895345e+01
1.379240e+01
1.954675e+01
1.438571e+01
1.988445e+01
1.410920e+01
2.041479e+01
1.463953e+01
2.074881e+01
1.436877e+01
2.121618e+01
1.483614e+01
2.152945e+01
1.458487e+01
2.193597e+01
1.499139e+01
2.221927e+01
1.476641e+01
2.256801e+01
1.511515e+01
2.281676e+01
1.491933e+01
2.311107e+01
1.521364e+01
2.332343e+01
1.504772e+01
2.356655e+01
1.529085e+01
2.374216e+01
1.515448e+01
2.393699e+01
1.534930e+01
2.407625e+01
1.524169e+01
2.422521e+01
1.539065e+01
2.432881e+01
1.531090e+01
2.443383e+01
1.541591e+01
2.450244e+01
1.536323e+01
2.456490e+01
1.542569e+01
2.459906e+01
1.539949e+01
2.461979e+01
1.542022e+01
</DataArray>
<DataArray type="Float32" Name="V2" format="ascii">
6.705682e-01
7.700000e-01
6.728222e-01
7.720596e-01
6.728222e-01
7.720596e-01
6.795405e-01
7.782241e-01
6.795405e-01
7.782241e-01
6.906864e-01
7.884509e-01
6.906864e-01
7.884509e-01
7.061822e-01
8.026699e-01
7.061822e-01
8.026699e-01
7.259200e-01
8.207847e-01
7.259200e-01
8.207847e-01
7.497611e-01
8.426760e-01
7.497611e-01
8.426760e-01
7.775348e-01
8.682079e-01
7.775348e-01
8.682079e-01
8.090317e-01
8.972394e-01
8.090317e-01
8.972394e-01
8.439860e-01
9.296447e-01
8.439860e-01
9.296447e-01
8.820278e-01
9.653385e-01
8.820278e-01
9.653385e-01
9.225629e-01
1.004285e+00
9.225629e-01
1.004285e+00
9.645015e-01
1.046379e+00
9.645015e-01
1.046379e+00
1.006767e+00
1.089928e+00
1.006767e+00
1.089928e+00
1.045269e+00
1.128535e+00
1.045269e+00
1.128535e+00
1.079572e+00
1.163495e+00
1.079572e+00
1.163495e+00
1.109945e+00
1.194744e+00
1.109945e+00
1.194744e+00
1.136842e+00
1.222412e+00
1.136842e+00
1.222412e+00
1.160611e+00
1.246753e+00
1.160611e+00
1.246753e+00
1.181561e+00
1.268079e+00
1.181561e+00
1.268079e+00
1.199960e+00
1.286694e+00
1.199960e+00
1.286694e+00
1.216035e+00
1.302870e+00
1.216035e+00
1.302870e+00
1.229980e+00
1.316838e+00
1.229980e+00
1.316838e+00
1.241957e+00
1.328789e+00
1.241957e+00
1.328789e+00
1.252099e+00
1.338877e+00
1.252099e+00
1.338877e+00
1.260515e+00
1.347229e+00
1.260515e+00
1.347229e+00
1.267291e+00
1.353941e+00
1.267291e+00
1.353941e+00
1.272495e+00
1.359089e+00
1.272495e+00
1.359089e+00
1.276178e+00
1.362728e+00
1.276178e+00
1.362728e+00
1.278374e+00
1.364897e+00
1.278374e+00
1.364897e+00
1.279104e+00
1.365618e+00
</DataArray>
<DataArray type="Float32" Name="V3" format="ascii">
0.000000e+00
0.000000e+00
2.443649e-02
1.913622e-02
2.443649e-02
1.913622e-02
4.846419e-02
3.789284e-02
4.846419e-02
3.789284e-02
7.167350e-02
5.589421e-02
7.167350e-02
5.589421e-02
9.365949e-02
7.276957e-02
9.365949e-02
7.276957e-02
1.140207e-01
8.815866e-02
1.140207e-01
8.815866e-02
1.323588e-01
1.017177e-01
1.323588e-01
1.017177e-01
1.482746e-01
1.131291e-01
1.482746e-01
1.131291e-01
1.613611e-01
1.221158e-01
1.613611e-01
1.221158e-01
1.711893e-01
1.284597e-01
1.711893e-01
1.284597e-01
1.772893e-01
1.320154e-01
1.772893e-01
1.320154e-01
1.791476e-01
1.326836e-01
1.791476e-01
1.326836e-01
1.763422e-01
1.302143e-01
1.763422e-01
1.302143e-01
1.693794e-01
1.237538e-01
1.693794e-01
1.237538e-01
1.612939e-01
1.178537e-01
1.612939e-01
1.178537e-01
1.523489e-01
1.128423e-01
1.523489e-01
1.128423e-01
1.432561e-01
1.081880e-01
1.432561e-01
1.081880e-01
1.340738e-01
1.034287e-01
1.340738e-01
1.034287e-01
1.247954e-01
9.829058e-02
1.247954e-01
9.829058e-02
1.153829e-01
9.262898e-02
1.153829e-01
9.262898e-02
1.057993e-01
8.638598e-02
1.057993e-01
8.638598e-02
9.601795e-02
7.955782e-02
9.601795e-02
7.955782e-02
8.602514e-02
7.217341e-02
8.602514e-02
7.217341e-02
7.581962e-02
6.428036e-02
7.581962e-02
6.428036e-02
6.541054e-02
5.593648e-02
6.541054e-02
5.593648e-02
5.481521e-02
4.720455e-02
5.481521e-02
4.720455e-02
4.405714e-02
3.814947e-02
4.405714e-02
3.814947e-02
3.316435e-02
2.883660e-02
3.316435e-02
2.883660e-02
2.216808e-02
1.933107e-02
2.216808e-02
1.933107e-02
1.110172e-02
9.697479e-03
1.110172e-02
9.697479e-03
0.000000e+00
0.000000e+00
</DataArray>
<DataArray type="Float32" Name="V4" format="ascii">
8.500000e-01
1.000000e+00
8.500000e-01
1.000000e+00
8.500000e-01
1.000000e+00
8.500000e-01
1.000000e+00
8.500000e-01
1.000000e+00
8.500000e-01
1.000000e+00
8.500000e-01
1.000000e+00
8.500000e-01
1.000000e+00
8.500000e-01
1.000000e+00
8.500000e-01
1.000000e+00
8.500000e-01
1.000000e+00
8.500000e-01
1.000000e+00
8.500000e-01
1.000000e+00
8.500000e-01
1.000000e+00
8.500000e-01
1.000000e+00
8.500000e-01
1.000000e+00
8.500000e-01
1.000000e+00
8.500000e-01
1.000000e+00
8.500000e-01
1.000000e+00
8.500000e-01
1.000000e+00
8.500000e-01
1.000000e+00
8.500000e-01
1.000000e+00
8.500000e-01
1.000000e+00
8.500000e-01
1.000000e+00
8.500000e-01
1.000000e+00
8.500000e-01
1.000000e+00
8.500000e-01
1.000000e+00
8.500000e-01
1.000000e+00
8.500000e-01
1.000000e+00
8.500000e-01
1.000000e+00
8.500000e-01
1.000000e+00
8.500000e-01
1.000000e+00
8.500000e-01
1.000000e+00
8.500000e-01
1.000000e+00
8.500000e-01
1.000000e+00
8.500000e-01
1.000000e+00
8.500000e-01
1.000000e+00
8.500000e-01
1.000000e+00
8.500000e-01
1.000000e+00
8.500000e-01
1.000000e+00
8.500000e-01
1.000000e+00
8.500000e-01
1.000000e+00
8.500000e-01
1.000000e+00
8.500000e-01
1.000000e+00
8.500000e-01
1.000000e+00
8.500000e-01
1.000000e+00
8.500000e-01
1.000000e+00
8.500000e-01
1.000000e+00
8.500000e-01
1.000000e+00
8.500000e-01
1.000000e+00
8.500000e-01
1.000000e+00
8.500000e-01
1.000000e+00
8.500000e-01
1.000000e+00
8.500000e-01
1.000000e+00
8.500000e-01
1.000000e+00
8.500000e-01
1.000000e+00
8.500000e-01
1.000000e+00
8.500000e-01
1.000000e+00
8.500000e-01
1.000000e+00
8.500000e-01
1.000000e+00
</DataArray>
<DataArray type="Float32" Name="V5" format="ascii">
0.000000e+00
0.000000e+00
5.235988e-02
5.235988e-02
5.235988e-02
5.235988e-02
1.047198e-01
1.047198e-01
1.047198e-01
1.047198e-01
1.570796e-01
1.570796e-01
1.570796e-01
1.570796e-01
2.094395e-01
2.094395e-01
2.094395e-01
2.094395e-01
2.617994e-01
2.617994e-01
2.617994e-01
2.617994e-01
3.141593e-01
3.141593e-01
3.141593e-01
3.141593e-01
3.665191e-01
3.665191e-01
3.665191e-01
3.665191e-01
4.188790e-01
4.188790e-01
4.188790e-01
4.188790e-01
4.712389e-01
4.712389e-01
4.712389e-01
4.712389e-01
5.235988e-01
5.235988e-01
5.235988e-01
5.235988e-01
5.759587e-01
5.759587e-01
5.759587e-01
5.759587e-01
6.283185e-01
6.283185e-01
6.283185e-01
6.283185e-01
6.806784e-01
6.806784e-01
6.806784e-01
6.806784e-01
7.330383e-01
7.330383e-01
7.330383e-01
7.330383e-01
7.853982e-01
7.853982e-01
7.853982e-01
7.853982e-01
8.377580e-01
8.377580e-01
8.377580e-01
8.377580e-01
8.901179e-01
8.901179e-01
8.901179e-01
8.901179e-01
9.424778e-01
9.424778e-01
9.424778e-01
9.424778e-01
9.948377e-01
9.948377e-01
9.948377e-01
9.948377e-01
1.047198e+00
1.047198e+00
1.047198e+00
1.047198e+00
1.099557e+00
1.099557e+00
1.099557e+00
1.099557e+00
1.151917e+00
1.151917e+00
1.151917e+00
1.151917e+00
1.204277e+00
1.204277e+00
1.204277e+00
1.204277e+00
1.256637e+00
1.256637e+00
1.256637e+00
1.256637e+00
1.308997e+00
1.308997e+00
1.308997e+00
1.308997e+00
1.361357e+00
1.361357e+00
1.361357e+00
1.361357e+00
1.413717e+00
1.413717e+00
1.413717e+00
1.413717e+00
1.466077e+00
1.466077e+00
1.466077e+00
1.466077e+00
1.518436e+00
1.518436e+00
1.518436e+00
1.518436e+00
1.570796e+00
1.570796e+00
</DataArray>
</PointData>
</Piece></UnstructuredGrid>
</VTKFile>
