<?xml version="1.0"?>
<VTKFile type="UnstructuredGrid" version="0.1" byte_order="LittleEndian" compressor="vtkZLibDataCompressor">
<UnstructuredGrid>
<Piece NumberOfPoints="120" NumberOfCells="30">
<Points>
<DataArray type="Float32" NumberOfComponents="3" format="ascii">
0.000000e+00 4.338813e-01 0.000000e+00
0.000000e+00 4.900000e-01 0.000000e+00
7.929663e-02 4.339213e-01 0.000000e+00
7.927399e-02 4.900000e-01 0.000000e+00
7.929663e-02 4.339213e-01 0.000000e+00
7.927399e-02 4.900000e-01 0.000000e+00
1.585837e-01 4.339825e-01 0.000000e+00
1.585376e-01 4.900000e-01 0.000000e+00
1.585837e-01 4.339825e-01 0.000000e+00
1.585376e-01 4.900000e-01 0.000000e+00
2.378479e-01 4.340841e-01 0.000000e+00
2.377786e-01 4.900000e-01 0.000000e+00
2.378479e-01 4.340841e-01 0.000000e+00
2.377786e-01 4.900000e-01 0.000000e+00
3.170777e-01 4.342261e-01 0.000000e+00
3.169856e-01 4.900000e-01 0.000000e+00
3.170777e-01 4.342261e-01 0.000000e+00
3.169856e-01 4.900000e-01 0.000000e+00
3.962611e-01 4.344080e-01 0.000000e+00
3.961468e-01 4.900000e-01 0.000000e+00
3.962611e-01 4.344080e-01 0.000000e+00
3.961468e-01 4.900000e-01 0.000000e+00
4.753857e-01 4.346291e-01 0.000000e+00
4.752498e-01 4.900000e-01 0.000000e+00
4.753857e-01 4.346291e-01 0.000000e+00
4.752498e-01 4.900000e-01 0.000000e+00
5.544384e-01 4.348888e-01 0.000000e+00
5.542821e-01 4.900000e-01 0.000000e+00
5.544384e-01 4.348888e-01 0.000000e+00
5.542821e-01 4.900000e-01 0.000000e+00
6.334053e-01 4.351863e-01 0.000000e+00
6.332304e-01 4.900000e-01 0.000000e+00
6.334053e-01 4.351863e-01 0.000000e+00
6.332304e-01 4.900000e-01 0.000000e+00
7.122712e-01 4.355204e-01 0.000000e+00
7.120808e-01 4.900000e-01 0.000000e+00
7.122712e-01 4.355204e-01 0.000000e+00
7.120808e-01 4.900000e-01 0.000000e+00
7.910200e-01 4.358903e-01 0.000000e+00
7.908194e-01 4.900000e-01 0.000000e+00
7.910200e-01 4.358903e-01 0.000000e+00
7.908194e-01 4.900000e-01 0.000000e+00
8.696336e-01 4.362947e-01 0.000000e+00
8.694319e-01 4.900000e-01 0.000000e+00
8.696336e-01 4.362947e-01 0.000000e+00
8.694319e-01 4.900000e-01 0.000000e+00
9.480917e-01 4.367320e-01 0.000000e+00
9.479051e-01 4.900000e-01 0.000000e+00
9.480917e-01 4.367320e-01 0.000000e+00
9.479051e-01 4.900000e-01 0.000000e+00
1.026370e+00 4.372006e-01 0.000000e+00
1.026228e+00 4.900000e-01 0.000000e+00
1.026370e+00 4.372006e-01 0.000000e+00
1.026228e+00 4.900000e-01 0.000000e+00
1.104440e+00 4.376982e-01 0.000000e+00
1.104394e+00 4.900000e-01 0.000000e+00
1.104440e+00 4.376982e-01 0.000000e+00
1.104394e+00 4.900000e-01 0.000000e+00
1.182265e+00 4.382214e-01 0.000000e+00
1.182407e+00 4.900000e-01 0.000000e+00
1.182265e+00 4.382214e-01 0.000000e+00
1.182407e+00 4.900000e-01 0.000000e+00
1.259791e+00 4.387648e-01 0.000000e+00
1.260291e+00 4.900000e-01 0.000000e+00
1.259791e+00 4.387648e-01 0.000000e+00
1.260291e+00 4.900000e-01 0.000000e+00
1.336942e+00 4.393201e-01 0.000000e+00
1.338107e+00 4.900000e-01 0.000000e+00
1.336942e+00 4.393201e-01 0.000000e+00
1.338107e+00 4.900000e-01 0.000000e+00
1.413594e+00 4.398768e-01 0.000000e+00
1.415990e+00 4.900000e-01 0.000000e+00
1.413594e+00 4.398768e-01 0.000000e+00
1.415990e+00 4.900000e-01 0.000000e+00
1.489527e+00 4.404325e-01 0.000000e+00
1.494202e+00 4.900000e-01 0.000000e+00
1.489527e+00 4.404325e-01 0.000000e+00
1.494202e+00 4.900000e-01 0.000000e+00
1.564301e+00 4.410284e-01 0.000000e+00
1.573200e+00 4.900000e-01 0.000000e+00
1.564301e+00 4.410284e-01 0.000000e+00
1.573200e+00 4.900000e-01 0.000000e+00
1.637399e+00 4.416362e-01 0.000000e+00
1.651884e+00 4.900000e-01 0.000000e+00
1.637399e+00 4.416362e-01 0.000000e+00
1.651884e+00 4.900000e-01 0.000000e+00
1.708440e+00 4.324276e-01 0.000000e+00
1.726976e+00 4.776574e-01 0.000000e+00
1.708440e+00 4.324276e-01 0.000000e+00
1.726976e+00 4.776574e-01 0.000000e+00
1.774059e+00 4.066528e-01 0.000000e+00
1.798059e+00 4.482358e-01 0.000000e+00
1.774059e+00 4.066528e-01 0.000000e+00
1.798059e+00 4.482358e-01 0.000000e+00
1.832448e+00 3.684883e-01 0.000000e+00
1.862103e+00 4.054055e-01 0.000000e+00
1.832448e+00 3.684883e-01 0.000000e+00
1.862103e+00 4.054055e-01 0.000000e+00
1.882646e+00 3.204950e-01 0.000000e+00
1.917321e+00 3.519246e-01 0.000000e+00
1.882646e+00 3.204950e-01 0.000000e+00
1.917321e+00 3.519246e-01 0.000000e+00
1.924119e+00 2.648436e-01 0.000000e+00
1.962863e+00 2.902790e-01 0.000000e+00
1.924119e+00 2.648436e-01 0.000000e+00
1.962863e+00 2.902790e-01 0.000000e+00
1.956561e+00 2.034041e-01 0.000000e+00
1.998370e+00 2.225845e-01 0.000000e+00
1.956561e+00 2.034041e-01 0.000000e+00
1.998370e+00 2.225845e-01 0.000000e+00
1.979806e+00 1.378192e-01 0.000000e+00
2.023729e+00 1.506329e-01 0.000000e+00
1.979806e+00 1.378192e-01 0.000000e+00
2.023729e+00 1.506329e-01 0.000000e+00
1.993775e+00 6.956346e-02 0.000000e+00
2.038931e+00 7.597399e-02 0.000000e+00
1.993775e+00 6.956346e-02 0.000000e+00
2.038931e+00 7.597399e-02 0.000000e+00
1.998435e+00 9.785510e-12 0.000000e+00
2.043995e+00 1.000860e-11 0.000000e+00
</DataArray>
</Points>
<Cells>
<DataArray type="Int32" Name="connectivity" format="ascii">
0 1 3 2
4 5 7 6
8 9 11 10
12 13 15 14
16 17 19 18
20 21 23 22
24 25 27 26
28 29 31 30
32 33 35 34
36 37 39 38
40 41 43 42
44 45 47 46
48 49 51 50
52 53 55 54
56 57 59 58
60 61 63 62
64 65 67 66
68 69 71 70
72 73 75 74
76 77 79 78
80 81 83 82
84 85 87 86
88 89 91 90
92 93 95 94
96 97 99 98
100 101 103 102
104 105 107 106
108 109 111 110
112 113 115 114
116 117 119 118
</DataArray>
<DataArray type="Int32" Name="offsets" format="ascii">
4
8
12
16
20
24
28
32
36
40
44
48
52
56
60
64
68
72
76
80
84
88
92
96
100
104
108
112
116
120
</DataArray>
<DataArray type="UInt8" Name="types" format="ascii">
9
9
9
9
9
9
9
9
9
9
9
9
9
9
9
9
9
9
9
9
9
9
9
9
9
9
9
9
9
9
</DataArray>
</Cells>
<PointData>
<DataArray type="Float32" Name="V1" format="ascii">
1.626563e+02
3.847071e+00
1.628201e+02
4.010873e+00
1.630833e+02
3.841571e+00
1.635540e+02
4.312252e+00
1.640848e+02
3.967832e+00
1.648803e+02
4.763314e+00
1.656814e+02
4.239738e+00
1.668093e+02
5.367697e+00
1.678896e+02
4.659834e+00
1.693634e+02
6.133630e+00
1.707342e+02
5.233612e+00
1.725717e+02
7.071123e+00
1.742478e+02
5.968917e+00
1.764719e+02
8.192971e+00
1.784711e+02
6.876193e+00
1.811102e+02
9.515265e+00
1.834534e+02
7.969103e+00
1.865426e+02
1.105826e+01
1.892536e+02
9.265471e+00
1.928358e+02
1.284762e+01
1.959400e+02
1.078882e+01
2.000677e+02
1.491652e+01
2.035896e+02
1.257097e+01
2.083276e+02
1.730904e+01
2.122858e+02
1.465665e+01
2.177152e+02
2.008607e+01
2.221118e+02
1.711158e+01
2.283360e+02
2.333578e+01
2.331357e+02
2.003756e+01
2.402906e+02
2.719244e+01
2.453809e+02
2.360105e+01
2.536508e+02
3.187095e+01
2.587652e+02
2.808997e+01
2.684051e+02
3.772992e+01
2.729844e+02
3.403385e+01
2.843352e+02
4.538469e+01
2.872921e+02
4.247736e+01
3.007197e+02
5.590504e+01
3.000922e+02
5.562142e+01
3.156338e+02
7.116300e+01
3.055867e+02
7.956251e+01
3.262592e+02
1.002350e+02
3.121123e+02
1.138067e+02
3.327858e+02
1.344802e+02
3.298053e+02
1.350887e+02
3.484530e+02
1.537364e+02
3.534472e+02
1.504682e+02
3.711291e+02
1.681501e+02
3.790986e+02
1.627274e+02
3.952960e+02
1.789248e+02
4.038925e+02
1.727864e+02
4.179654e+02
1.868593e+02
4.258380e+02
1.810604e+02
4.372493e+02
1.924717e+02
4.436283e+02
1.876904e+02
4.520034e+02
1.960656e+02
4.564502e+02
1.927023e+02
4.615570e+02
1.978092e+02
4.638329e+02
1.960805e+02
4.655480e+02
1.977956e+02
</DataArray>
<DataArray type="Float32" Name="V2" format="ascii">
4.338813e-01
4.900000e-01
4.374767e-01
4.934774e-01
4.374767e-01
4.934774e-01
4.481817e-01
5.038874e-01
4.481817e-01
5.038874e-01
4.659475e-01
5.211641e-01
4.659475e-01
5.211641e-01
4.906614e-01
5.451973e-01
4.906614e-01
5.451973e-01
5.221658e-01
5.758340e-01
5.221658e-01
5.758340e-01
5.602592e-01
6.128780e-01
5.602592e-01
6.128780e-01
6.046967e-01
6.560914e-01
6.046967e-01
6.560914e-01
6.551916e-01
7.051953e-01
6.551916e-01
7.051953e-01
7.114159e-01
7.598711e-01
7.114159e-01
7.598711e-01
7.730021e-01
8.197621e-01
7.730021e-01
8.197621e-01
8.395439e-01
8.844751e-01
8.395439e-01
8.844751e-01
9.105979e-01
9.535830e-01
9.105979e-01
9.535830e-01
9.856845e-01
1.026628e+00
9.856845e-01
1.026628e+00
1.064288e+00
1.103125e+00
1.064288e+00
1.103125e+00
1.145857e+00
1.182570e+00
1.145857e+00
1.182570e+00
1.229798e+00
1.264452e+00
1.229798e+00
1.264452e+00
1.315472e+00
1.348272e+00
1.315472e+00
1.348272e+00
1.402174e+00
1.433575e+00
1.402174e+00
1.433575e+00
1.489099e+00
1.520017e+00
1.489099e+00
1.520017e+00
1.575238e+00
1.607431e+00
1.575238e+00
1.607431e+00
1.659432e+00
1.694295e+00
1.659432e+00
1.694295e+00
1.736622e+00
1.771952e+00
1.736622e+00
1.771952e+00
1.801958e+00
1.839266e+00
1.801958e+00
1.839266e+00
1.856630e+00
1.896243e+00
1.856630e+00
1.896243e+00
1.901446e+00
1.943074e+00
1.901446e+00
1.943074e+00
1.937136e+00
1.980322e+00
1.937136e+00
1.980322e+00
1.964292e+00
2.008587e+00
1.964292e+00
2.008587e+00
1.983367e+00
2.028388e+00
1.983367e+00
2.028388e+00
1.994684e+00
2.040113e+00
1.994684e+00
2.040113e+00
1.998435e+00
2.043995e+00
</DataArray>
<DataArray type="Float32" Name="V3" format="ascii">
0.000000e+00
0.000000e+00
5.647828e-02
5.352073e-02
5.647828e-02
5.352073e-02
1.123515e-01
1.064501e-01
1.123515e-01
1.064501e-01
1.670139e-01
1.581983e-01
1.670139e-01
1.581983e-01
2.198681e-01
2.081820e-01
2.198681e-01
2.081820e-01
2.703258e-01
2.558270e-01
2.703258e-01
2.558270e-01
3.178109e-01
3.005711e-01
3.178109e-01
3.005711e-01
3.617626e-01
3.418666e-01
3.617626e-01
3.418666e-01
4.016383e-01
3.791838e-01
4.016383e-01
3.791838e-01
4.369162e-01
4.120133e-01
4.369162e-01
4.120133e-01
4.670983e-01
4.398697e-01
4.670983e-01
4.398697e-01
4.917130e-01
4.622938e-01
4.917130e-01
4.622938e-01
5.103176e-01
4.788565e-01
5.103176e-01
4.788565e-01
5.225003e-01
4.891617e-01
5.225003e-01
4.891617e-01
5.278819e-01
4.928504e-01
5.278819e-01
4.928504e-01
5.261180e-01
4.896054e-01
5.261180e-01
4.896054e-01
5.168987e-01
4.791580e-01
5.168987e-01
4.791580e-01
4.999489e-01
4.612966e-01
4.999489e-01
4.612966e-01
4.750218e-01
4.358798e-01
4.750218e-01
4.358798e-01
4.418770e-01
4.028523e-01
4.418770e-01
4.028523e-01
4.002085e-01
3.622474e-01
4.002085e-01
3.622474e-01
3.498631e-01
3.133464e-01
3.498631e-01
3.133464e-01
2.998429e-01
2.660626e-01
2.998429e-01
2.660626e-01
2.561229e-01
2.259026e-01
2.561229e-01
2.259026e-01
2.158043e-01
1.898580e-01
2.158043e-01
1.898580e-01
1.776901e-01
1.563061e-01
1.776901e-01
1.563061e-01
1.409907e-01
1.241663e-01
1.409907e-01
1.241663e-01
1.051737e-01
9.276987e-02
1.051737e-01
9.276987e-02
6.988187e-02
6.172961e-02
6.988187e-02
6.172961e-02
3.487801e-02
3.083952e-02
3.487801e-02
3.083952e-02
0.000000e+00
0.000000e+00
</DataArray>
<DataArray type="Float32" Name="V4" format="ascii">
8.500000e-01
1.000000e+00
8.500000e-01
1.000000e+00
8.500000e-01
1.000000e+00
8.500000e-01
1.000000e+00
8.500000e-01
1.000000e+00
8.500000e-01
1.000000e+00
8.500000e-01
1.000000e+00
8.500000e-01
1.000000e+00
8.500000e-01
1.000000e+00
8.500000e-01
1.000000e+00
8.500000e-01
1.000000e+00
8.500000e-01
1.000000e+00
8.500000e-01
1.000000e+00
8.500000e-01
1.000000e+00
8.500000e-01
1.000000e+00
8.500000e-01
1.000000e+00
8.500000e-01
1.000000e+00
8.500000e-01
1.000000e+00
8.500000e-01
1.000000e+00
8.500000e-01
1.000000e+00
8.500000e-01
1.000000e+00
8.500000e-01
1.000000e+00
8.500000e-01
1.000000e+00
8.500000e-01
1.000000e+00
8.500000e-01
1.000000e+00
8.500000e-01
1.000000e+00
8.500000e-01
1.000000e+00
8.500000e-01
1.000000e+00
8.500000e-01
1.000000e+00
8.500000e-01
1.000000e+00
8.500000e-01
1.000000e+00
8.500000e-01
1.000000e+00
8.500000e-01
1.000000e+00
8.500000e-01
1.000000e+00
8.500000e-01
1.000000e+00
8.500000e-01
1.000000e+00
8.500000e-01
1.000000e+00
8.500000e-01
1.000000e+00
8.500000e-01
1.000000e+00
8.500000e-01
1.000000e+00
8.500000e-01
1.000000e+00
8.500000e-01
1.000000e+00
8.500000e-01
1.000000e+00
8.500000e-01
1.000000e+00
8.500000e-01
1.000000e+00
8.500000e-01
1.000000e+00
8.500000e-01
1.000000e+00
8.500000e-01
1.000000e+00
8.500000e-01
1.000000e+00
8.500000e-01
1.000000e+00
8.500000e-01
1.000000e+00
8.500000e-01
1.000000e+00
8.500000e-01
1.000000e+00
8.500000e-01
1.000000e+00
8.500000e-01
1.000000e+00
8.500000e-01
1.000000e+00
8.500000e-01
1.000000e+00
8.500000e-01
1.000000e+00
8.500000e-01
1.000000e+00
8.500000e-01
1.000000e+00
</DataArray>
<DataArray type="Float32" Name="V5" format="ascii">
0.000000e+00
0.000000e+00
5.235988e-02
5.235988e-02
5.235988e-02
5.235988e-02
1.047198e-01
1.047198e-01
1.047198e-01
1.047198e-01
1.570796e-01
1.570796e-01
1.570796e-01
1.570796e-01
2.094395e-01
2.094395e-01
2.094395e-01
2.094395e-01
2.617994e-01
2.617994e-01
2.617994e-01
2.617994e-01
3.141593e-01
3.141593e-01
3.141593e-01
3.141593e-01
3.665191e-01
3.665191e-01
3.665191e-01
3.665191e-01
4.188790e-01
4.188790e-01
4.188790e-01
4.188790e-01
4.712389e-01
4.712389e-01
4.712389e-01
4.712389e-01
5.235988e-01
5.235988e-01
5.235988e-01
5.235988e-01
5.759587e-01
5.759587e-01
5.759587e-01
5.759587e-01
6.283185e-01
6.283185e-01
6.283185e-01
6.283185e-01
6.806784e-01
6.806784e-01
6.806784e-01
6.806784e-01
7.330383e-01
7.330383e-01
7.330383e-01
7.330383e-01
7.853982e-01
7.853982e-01
7.853982e-01
7.853982e-01
8.377580e-01
8.377580e-01
8.377580e-01
8.377580e-01
8.901179e-01
8.901179e-01
8.901179e-01
8.901179e-01
9.424778e-01
9.424778e-01
9.424778e-01
9.424778e-01
9.948377e-01
9.948377e-01
9.948377e-01
9.948377e-01
1.047198e+00
1.047198e+00
1.047198e+00
1.047198e+00
1.099557e+00
1.099557e+00
1.099557e+00
1.099557e+00
1.151917e+00
1.151917e+00
1.151917e+00
1.151917e+00
1.204277e+00
1.204277e+00
1.204277e+00
1.204277e+00
1.256637e+00
1.256637e+00
1.256637e+00
1.256637e+00
1.308997e+00
1.308997e+00
1.308997e+00
1.308997e+00
1.361357e+00
1.361357e+00
1.361357e+00
1.361357e+00
1.413717e+00
1.413717e+00
1.413717e+00
1.413717e+00
1.466077e+00
1.466077e+00
1.466077e+00
1.466077e+00
1.518436e+00
1.518436e+00
1.518436e+00
1.518436e+00
1.570796e+00
1.570796e+00
</DataArray>
</PointData>
</Piece></UnstructuredGrid>
</VTKFile>
