<?xml version="1.0"?>
<VTKFile type="UnstructuredGrid" version="0.1" byte_order="LittleEndian" compressor="vtkZLibDataCompressor">
<UnstructuredGrid>
<Piece NumberOfPoints="120" NumberOfCells="30">
<Points>
<DataArray type="Float32" NumberOfComponents="3" format="ascii">
0.000000e+00 7.263654e-01 0.000000e+00
0.000000e+00 8.300000e-01 0.000000e+00
5.839846e-02 7.264213e-01 0.000000e+00
5.829795e-02 8.300000e-01 0.000000e+00
5.839846e-02 7.264213e-01 0.000000e+00
5.829795e-02 8.300000e-01 0.000000e+00
1.167952e-01 7.265637e-01 0.000000e+00
1.165985e-01 8.300000e-01 0.000000e+00
1.167952e-01 7.265637e-01 0.000000e+00
1.165985e-01 8.300000e-01 0.000000e+00
1.751850e-01 7.268034e-01 0.000000e+00
1.749085e-01 8.300000e-01 0.000000e+00
1.751850e-01 7.268034e-01 0.000000e+00
1.749085e-01 8.300000e-01 0.000000e+00
2.335602e-01 7.271443e-01 0.000000e+00
2.332412e-01 8.300000e-01 0.000000e+00
2.335602e-01 7.271443e-01 0.000000e+00
2.332412e-01 8.300000e-01 0.000000e+00
2.919051e-01 7.275940e-01 0.000000e+00
2.916256e-01 8.300000e-01 0.000000e+00
2.919051e-01 7.275940e-01 0.000000e+00
2.916256e-01 8.300000e-01 0.000000e+00
3.501868e-01 7.281644e-01 0.000000e+00
3.501196e-01 8.300000e-01 0.000000e+00
3.501868e-01 7.281644e-01 0.000000e+00
3.501196e-01 8.300000e-01 0.000000e+00
4.083366e-01 7.288690e-01 0.000000e+00
4.088315e-01 8.300000e-01 0.000000e+00
4.083366e-01 7.288690e-01 0.000000e+00
4.088315e-01 8.300000e-01 0.000000e+00
4.662153e-01 7.297077e-01 0.000000e+00
4.679431e-01 8.300000e-01 0.000000e+00
4.662153e-01 7.297077e-01 0.000000e+00
4.679431e-01 8.300000e-01 0.000000e+00
5.235499e-01 7.306121e-01 0.000000e+00
5.277092e-01 8.300000e-01 0.000000e+00
5.235499e-01 7.306121e-01 0.000000e+00
5.277092e-01 8.300000e-01 0.000000e+00
5.798399e-01 7.312300e-01 0.000000e+00
5.883456e-01 8.300000e-01 0.000000e+00
5.798399e-01 7.312300e-01 0.000000e+00
5.883456e-01 8.300000e-01 0.000000e+00
6.347551e-01 7.310168e-01 0.000000e+00
6.492461e-01 8.300000e-01 0.000000e+00
6.347551e-01 7.310168e-01 0.000000e+00
6.492461e-01 8.300000e-01 0.000000e+00
6.886398e-01 7.267168e-01 0.000000e+00
7.091655e-01 8.244634e-01 0.000000e+00
6.886398e-01 7.267168e-01 0.000000e+00
7.091655e-01 8.244634e-01 0.000000e+00
7.404454e-01 7.165452e-01 0.000000e+00
7.685817e-01 8.111618e-01 0.000000e+00
7.404454e-01 7.165452e-01 0.000000e+00
7.685817e-01 8.111618e-01 0.000000e+00
7.904415e-01 7.007426e-01 0.000000e+00
8.267507e-01 7.914462e-01 0.000000e+00
7.904415e-01 7.007426e-01 0.000000e+00
8.267507e-01 7.914462e-01 0.000000e+00
8.384881e-01 6.796092e-01 0.000000e+00
8.827079e-01 7.657400e-01 0.000000e+00
8.384881e-01 6.796092e-01 0.000000e+00
8.827079e-01 7.657400e-01 0.000000e+00
8.843548e-01 6.536306e-01 0.000000e+00
9.358660e-01 7.346887e-01 0.000000e+00
8.843548e-01 6.536306e-01 0.000000e+00
9.358660e-01 7.346887e-01 0.000000e+00
9.278067e-01 6.232688e-01 0.000000e+00
9.858619e-01 6.989171e-01 0.000000e+00
9.278067e-01 6.232688e-01 0.000000e+00
9.858619e-01 6.989171e-01 0.000000e+00
9.686364e-01 5.889741e-01 0.000000e+00
1.032479e+00 6.590012e-01 0.000000e+00
9.686364e-01 5.889741e-01 0.000000e+00
1.032479e+00 6.590012e-01 0.000000e+00
1.006668e+00 5.511707e-01 0.000000e+00
1.075586e+00 6.154529e-01 0.000000e+00
1.006668e+00 5.511707e-01 0.000000e+00
1.075586e+00 6.154529e-01 0.000000e+00
1.041758e+00 5.102535e-01 0.000000e+00
1.115100e+00 5.687237e-01 0.000000e+00
1.041758e+00 5.102535e-01 0.000000e+00
1.115100e+00 5.687237e-01 0.000000e+00
1.073788e+00 4.665884e-01 0.000000e+00
1.150966e+00 5.192143e-01 0.000000e+00
1.073788e+00 4.665884e-01 0.000000e+00
1.150966e+00 5.192143e-01 0.000000e+00
1.102662e+00 4.205151e-01 0.000000e+00
1.183145e+00 4.672841e-01 0.000000e+00
1.102662e+00 4.205151e-01 0.000000e+00
1.183145e+00 4.672841e-01 0.000000e+00
1.128299e+00 3.723502e-01 0.000000e+00
1.211604e+00 4.132602e-01 0.000000e+00
1.128299e+00 3.723502e-01 0.000000e+00
1.211604e+00 4.132602e-01 0.000000e+00
1.150636e+00 3.223911e-01 0.000000e+00
1.236321e+00 3.574450e-01 0.000000e+00
1.150636e+00 3.223911e-01 0.000000e+00
1.236321e+00 3.574450e-01 0.000000e+00
1.169620e+00 2.709195e-01 0.000000e+00
1.257272e+00 3.001220e-01 0.000000e+00
1.169620e+00 2.709195e-01 0.000000e+00
1.257272e+00 3.001220e-01 0.000000e+00
1.185208e+00 2.182044e-01 0.000000e+00
1.274440e+00 2.415603e-01 0.000000e+00
1.185208e+00 2.182044e-01 0.000000e+00
1.274440e+00 2.415603e-01 0.000000e+00
1.197366e+00 1.645054e-01 0.000000e+00
1.287809e+00 1.820187e-01 0.000000e+00
1.197366e+00 1.645054e-01 0.000000e+00
1.287809e+00 1.820187e-01 0.000000e+00
1.206068e+00 1.100743e-01 0.000000e+00
1.297367e+00 1.217482e-01 0.000000e+00
1.206068e+00 1.100743e-01 0.000000e+00
1.297367e+00 1.217482e-01 0.000000e+00
1.211297e+00 5.515806e-02 0.000000e+00
1.303106e+00 6.099451e-02 0.000000e+00
1.211297e+00 5.515806e-02 0.000000e+00
1.303106e+00 6.099451e-02 0.000000e+00
1.213041e+00 5.939760e-12 0.000000e+00
1.305019e+00 6.390140e-12 0.000000e+00
</DataArray>
</Points>
<Cells>
<DataArray type="Int32" Name="connectivity" format="ascii">
0 1 3 2
4 5 7 6
8 9 11 10
12 13 15 14
16 17 19 18
20 21 23 22
24 25 27 26
28 29 31 30
32 33 35 34
36 37 39 38
40 41 43 42
44 45 47 46
48 49 51 50
52 53 55 54
56 57 59 58
60 61 63 62
64 65 67 66
68 69 71 70
72 73 75 74
76 77 79 78
80 81 83 82
84 85 87 86
88 89 91 90
92 93 95 94
96 97 99 98
100 101 103 102
104 105 107 106
108 109 111 110
112 113 115 114
116 117 119 118
</DataArray>
<DataArray type="Int32" Name="offsets" format="ascii">
4
8
12
16
20
24
28
32
36
40
44
48
52
56
60
64
68
72
76
80
84
88
92
96
100
104
108
112
116
120
</DataArray>
<DataArray type="UInt8" Name="types" format="ascii">
9
9
9
9
9
9
9
9
9
9
9
9
9
9
9
9
9
9
9
9
9
9
9
9
9
9
9
9
9
9
</DataArray>
</Cells>
<PointData>
<DataArray type="Float32" Name="V1" format="ascii">
1.395201e+01
-5.223019e-01
1.397206e+01
-5.022503e-01
1.399662e+01
-5.195205e-01
1.404955e+01
-4.665878e-01
1.409956e+01
-5.008344e-01
1.418883e+01
-4.115585e-01
1.426045e+01
-4.615480e-01
1.438664e+01
-3.353619e-01
1.447336e+01
-3.969227e-01
1.463757e+01
-2.327102e-01
1.472352e+01
-2.956765e-01
1.492829e+01
-9.090321e-02
1.497788e+01
-1.321292e-01
1.522938e+01
1.193740e-01
1.516813e+01
1.500207e-01
1.548168e+01
4.635732e-01
1.516394e+01
6.708531e-01
1.557750e+01
1.084412e+00
1.474184e+01
1.668360e+00
1.537240e+01
2.298926e+00
1.352323e+01
3.770532e+00
1.461699e+01
4.864293e+00
1.226818e+01
7.071242e+00
1.320303e+01
8.006089e+00
1.206929e+01
8.716629e+00
1.259353e+01
9.240871e+00
1.220964e+01
9.559511e+00
1.272353e+01
1.007340e+01
1.264619e+01
1.014326e+01
1.314076e+01
1.063783e+01
1.323334e+01
1.056320e+01
1.369586e+01
1.102572e+01
1.387239e+01
1.087944e+01
1.429498e+01
1.130203e+01
1.450811e+01
1.112596e+01
1.488791e+01
1.150577e+01
1.510989e+01
1.132396e+01
1.544705e+01
1.166111e+01
1.566222e+01
1.148662e+01
1.595853e+01
1.178293e+01
1.615836e+01
1.162245e+01
1.641640e+01
1.188049e+01
1.659661e+01
1.173702e+01
1.681915e+01
1.195956e+01
1.697795e+01
1.183411e+01
1.716771e+01
1.202387e+01
1.730470e+01
1.191635e+01
1.746414e+01
1.207579e+01
1.757966e+01
1.198562e+01
1.771095e+01
1.211692e+01
1.780565e+01
1.204332e+01
1.791063e+01
1.214829e+01
1.798527e+01
1.209048e+01
1.806540e+01
1.217062e+01
1.812070e+01
1.212790e+01
1.817713e+01
1.218434e+01
1.821365e+01
1.215618e+01
1.824719e+01
1.218972e+01
1.826535e+01
1.217573e+01
1.827648e+01
1.218686e+01
</DataArray>
<DataArray type="Float32" Name="V2" format="ascii">
7.263654e-01
8.300000e-01
7.284821e-01
8.319136e-01
7.284821e-01
8.319136e-01
7.347919e-01
8.376410e-01
7.347919e-01
8.376410e-01
7.452602e-01
8.471430e-01
7.452602e-01
8.471430e-01
7.598143e-01
8.603561e-01
7.598143e-01
8.603561e-01
7.783524e-01
8.771967e-01
7.783524e-01
8.771967e-01
8.007391e-01
8.975698e-01
8.007391e-01
8.975698e-01
8.267926e-01
9.213838e-01
8.267926e-01
9.213838e-01
8.562480e-01
9.485723e-01
8.562480e-01
9.485723e-01
8.886668e-01
9.791104e-01
8.886668e-01
9.791104e-01
9.231837e-01
1.012974e+00
9.231837e-01
1.012974e+00
9.587947e-01
1.049701e+00
9.587947e-01
1.049701e+00
9.926985e-01
1.083842e+00
9.926985e-01
1.083842e+00
1.022838e+00
1.114075e+00
1.022838e+00
1.114075e+00
1.049662e+00
1.141363e+00
1.049662e+00
1.141363e+00
1.073457e+00
1.165629e+00
1.073457e+00
1.165629e+00
1.094568e+00
1.187087e+00
1.094568e+00
1.187087e+00
1.113277e+00
1.206001e+00
1.113277e+00
1.206001e+00
1.129834e+00
1.222644e+00
1.129834e+00
1.222644e+00
1.144452e+00
1.237262e+00
1.144452e+00
1.237262e+00
1.157316e+00
1.250067e+00
1.157316e+00
1.250067e+00
1.168579e+00
1.261237e+00
1.168579e+00
1.261237e+00
1.178370e+00
1.270918e+00
1.178370e+00
1.270918e+00
1.186796e+00
1.279229e+00
1.186796e+00
1.279229e+00
1.193945e+00
1.286267e+00
1.193945e+00
1.286267e+00
1.199886e+00
1.292109e+00
1.199886e+00
1.292109e+00
1.204676e+00
1.296813e+00
1.204676e+00
1.296813e+00
1.208359e+00
1.300428e+00
1.208359e+00
1.300428e+00
1.210967e+00
1.302986e+00
1.210967e+00
1.302986e+00
1.212524e+00
1.304512e+00
1.212524e+00
1.304512e+00
1.213041e+00
1.305019e+00
</DataArray>
<DataArray type="Float32" Name="V3" format="ascii">
0.000000e+00
0.000000e+00
2.030047e-02
1.477921e-02
2.030047e-02
1.477921e-02
4.020882e-02
2.920115e-02
4.020882e-02
2.920115e-02
5.933104e-02
4.291451e-02
5.933104e-02
4.291451e-02
7.727454e-02
5.557766e-02
7.727454e-02
5.557766e-02
9.364353e-02
6.686887e-02
9.364353e-02
6.686887e-02
1.080323e-01
7.649942e-02
1.080323e-01
7.649942e-02
1.200118e-01
8.423165e-02
1.200118e-01
8.423165e-02
1.291100e-01
8.989589e-02
1.291100e-01
8.989589e-02
1.347954e-01
9.338021e-02
1.347954e-01
9.338021e-02
1.365410e-01
9.452222e-02
1.365410e-01
9.452222e-02
1.342101e-01
9.245319e-02
1.342101e-01
9.245319e-02
1.299679e-01
8.911954e-02
1.299679e-01
8.911954e-02
1.244976e-01
8.681945e-02
1.244976e-01
8.681945e-02
1.185242e-01
8.481464e-02
1.185242e-01
8.481464e-02
1.123443e-01
8.270879e-02
1.123443e-01
8.270879e-02
1.060066e-01
8.023648e-02
1.060066e-01
8.023648e-02
9.951688e-02
7.726239e-02
9.951688e-02
7.726239e-02
9.286012e-02
7.373285e-02
9.286012e-02
7.373285e-02
8.602028e-02
6.964404e-02
8.602028e-02
6.964404e-02
7.898673e-02
6.502098e-02
7.898673e-02
6.502098e-02
7.175634e-02
5.990444e-02
7.175634e-02
5.990444e-02
6.433316e-02
5.434303e-02
6.433316e-02
5.434303e-02
5.672739e-02
4.838861e-02
5.672739e-02
4.838861e-02
4.895406e-02
4.209374e-02
4.895406e-02
4.209374e-02
4.103194e-02
3.551037e-02
4.103194e-02
3.551037e-02
3.298252e-02
2.868928e-02
3.298252e-02
2.868928e-02
2.482929e-02
2.167992e-02
2.482929e-02
2.167992e-02
1.659715e-02
1.453054e-02
1.659715e-02
1.453054e-02
8.311915e-03
7.288374e-03
8.311915e-03
7.288374e-03
0.000000e+00
0.000000e+00
</DataArray>
<DataArray type="Float32" Name="V4" format="ascii">
8.500000e-01
1.000000e+00
8.500000e-01
1.000000e+00
8.500000e-01
1.000000e+00
8.500000e-01
1.000000e+00
8.500000e-01
1.000000e+00
8.500000e-01
1.000000e+00
8.500000e-01
1.000000e+00
8.500000e-01
1.000000e+00
8.500000e-01
1.000000e+00
8.500000e-01
1.000000e+00
8.500000e-01
1.000000e+00
8.500000e-01
1.000000e+00
8.500000e-01
1.000000e+00
8.500000e-01
1.000000e+00
8.500000e-01
1.000000e+00
8.500000e-01
1.000000e+00
8.500000e-01
1.000000e+00
8.500000e-01
1.000000e+00
8.500000e-01
1.000000e+00
8.500000e-01
1.000000e+00
8.500000e-01
1.000000e+00
8.500000e-01
1.000000e+00
8.500000e-01
1.000000e+00
8.500000e-01
1.000000e+00
8.500000e-01
1.000000e+00
8.500000e-01
1.000000e+00
8.500000e-01
1.000000e+00
8.500000e-01
1.000000e+00
8.500000e-01
1.000000e+00
8.500000e-01
1.000000e+00
8.500000e-01
1.000000e+00
8.500000e-01
1.000000e+00
8.500000e-01
1.000000e+00
8.500000e-01
1.000000e+00
8.500000e-01
1.000000e+00
8.500000e-01
1.000000e+00
8.500000e-01
1.000000e+00
8.500000e-01
1.000000e+00
8.500000e-01
1.000000e+00
8.500000e-01
1.000000e+00
8.500000e-01
1.000000e+00
8.500000e-01
1.000000e+00
8.500000e-01
1.000000e+00
8.500000e-01
1.000000e+00
8.500000e-01
1.000000e+00
8.500000e-01
1.000000e+00
8.500000e-01
1.000000e+00
8.500000e-01
1.000000e+00
8.500000e-01
1.000000e+00
8.500000e-01
1.000000e+00
8.500000e-01
1.000000e+00
8.500000e-01
1.000000e+00
8.500000e-01
1.000000e+00
8.500000e-01
1.000000e+00
8.500000e-01
1.000000e+00
8.500000e-01
1.000000e+00
8.500000e-01
1.000000e+00
8.500000e-01
1.000000e+00
8.500000e-01
1.000000e+00
8.500000e-01
1.000000e+00
</DataArray>
<DataArray type="Float32" Name="V5" format="ascii">
0.000000e+00
0.000000e+00
5.235988e-02
5.235988e-02
5.235988e-02
5.235988e-02
1.047198e-01
1.047198e-01
1.047198e-01
1.047198e-01
1.570796e-01
1.570796e-01
1.570796e-01
1.570796e-01
2.094395e-01
2.094395e-01
2.094395e-01
2.094395e-01
2.617994e-01
2.617994e-01
2.617994e-01
2.617994e-01
3.141593e-01
3.141593e-01
3.141593e-01
3.141593e-01
3.665191e-01
3.665191e-01
3.665191e-01
3.665191e-01
4.188790e-01
4.188790e-01
4.188790e-01
4.188790e-01
4.712389e-01
4.712389e-01
4.712389e-01
4.712389e-01
5.235988e-01
5.235988e-01
5.235988e-01
5.235988e-01
5.759587e-01
5.759587e-01
5.759587e-01
5.759587e-01
6.283185e-01
6.283185e-01
6.283185e-01
6.283185e-01
6.806784e-01
6.806784e-01
6.806784e-01
6.806784e-01
7.330383e-01
7.330383e-01
7.330383e-01
7.330383e-01
7.853982e-01
7.853982e-01
7.853982e-01
7.853982e-01
8.377580e-01
8.377580e-01
8.377580e-01
8.377580e-01
8.901179e-01
8.901179e-01
8.901179e-01
8.901179e-01
9.424778e-01
9.424778e-01
9.424778e-01
9.424778e-01
9.948377e-01
9.948377e-01
9.948377e-01
9.948377e-01
1.047198e+00
1.047198e+00
1.047198e+00
1.047198e+00
1.099557e+00
1.099557e+00
1.099557e+00
1.099557e+00
1.151917e+00
1.151917e+00
1.151917e+00
1.151917e+00
1.204277e+00
1.204277e+00
1.204277e+00
1.204277e+00
1.256637e+00
1.256637e+00
1.256637e+00
1.256637e+00
1.308997e+00
1.308997e+00
1.308997e+00
1.308997e+00
1.361357e+00
1.361357e+00
1.361357e+00
1.361357e+00
1.413717e+00
1.413717e+00
1.413717e+00
1.413717e+00
1.466077e+00
1.466077e+00
1.466077e+00
1.466077e+00
1.518436e+00
1.518436e+00
1.518436e+00
1.518436e+00
1.570796e+00
1.570796e+00
</DataArray>
</PointData>
</Piece></UnstructuredGrid>
</VTKFile>
