<?xml version="1.0"?>
<VTKFile type="UnstructuredGrid" version="0.1" byte_order="LittleEndian" compressor="vtkZLibDataCompressor">
<UnstructuredGrid>
<Piece NumberOfPoints="120" NumberOfCells="30">
<Points>
<DataArray type="Float32" NumberOfComponents="3" format="ascii">
0.000000e+00 9.943483e-01 0.000000e+00
0.000000e+00 1.100000e+00 0.000000e+00
5.620922e-02 9.943755e-01 0.000000e+00
5.928449e-02 1.100000e+00 0.000000e+00
5.620922e-02 9.943755e-01 0.000000e+00
5.928449e-02 1.100000e+00 0.000000e+00
1.118639e-01 9.940469e-01 0.000000e+00
1.187958e-01 1.100000e+00 0.000000e+00
1.118639e-01 9.940469e-01 0.000000e+00
1.187958e-01 1.100000e+00 0.000000e+00
1.667851e-01 9.929568e-01 0.000000e+00
1.781625e-01 1.100000e+00 0.000000e+00
1.667851e-01 9.929568e-01 0.000000e+00
1.781625e-01 1.100000e+00 0.000000e+00
2.211995e-01 9.888035e-01 0.000000e+00
2.369358e-01 1.095748e+00 0.000000e+00
2.211995e-01 9.888035e-01 0.000000e+00
2.369358e-01 1.095748e+00 0.000000e+00
2.744917e-01 9.810465e-01 0.000000e+00
2.957166e-01 1.086682e+00 0.000000e+00
2.744917e-01 9.810465e-01 0.000000e+00
2.957166e-01 1.086682e+00 0.000000e+00
3.269763e-01 9.697562e-01 0.000000e+00
3.541517e-01 1.073727e+00 0.000000e+00
3.269763e-01 9.697562e-01 0.000000e+00
3.541517e-01 1.073727e+00 0.000000e+00
3.786263e-01 9.550644e-01 0.000000e+00
4.118042e-01 1.057040e+00 0.000000e+00
3.786263e-01 9.550644e-01 0.000000e+00
4.118042e-01 1.057040e+00 0.000000e+00
4.293205e-01 9.371458e-01 0.000000e+00
4.683830e-01 1.036814e+00 0.000000e+00
4.293205e-01 9.371458e-01 0.000000e+00
4.683830e-01 1.036814e+00 0.000000e+00
4.789135e-01 9.161497e-01 0.000000e+00
5.236675e-01 1.013221e+00 0.000000e+00
4.789135e-01 9.161497e-01 0.000000e+00
5.236675e-01 1.013221e+00 0.000000e+00
5.272558e-01 8.922168e-01 0.000000e+00
5.774770e-01 9.864251e-01 0.000000e+00
5.272558e-01 8.922168e-01 0.000000e+00
5.774770e-01 9.864251e-01 0.000000e+00
5.742004e-01 8.654810e-01 0.000000e+00
6.296527e-01 9.565757e-01 0.000000e+00
5.742004e-01 8.654810e-01 0.000000e+00
6.296527e-01 9.565757e-01 0.000000e+00
6.196060e-01 8.360723e-01 0.000000e+00
6.800492e-01 9.238173e-01 0.000000e+00
6.196060e-01 8.360723e-01 0.000000e+00
6.800492e-01 9.238173e-01 0.000000e+00
6.633380e-01 8.041183e-01 0.000000e+00
7.285307e-01 8.882897e-01 0.000000e+00
6.633380e-01 8.041183e-01 0.000000e+00
7.285307e-01 8.882897e-01 0.000000e+00
7.052688e-01 7.697455e-01 0.000000e+00
7.749681e-01 8.501303e-01 0.000000e+00
7.052688e-01 7.697455e-01 0.000000e+00
7.749681e-01 8.501303e-01 0.000000e+00
7.452775e-01 7.330807e-01 0.000000e+00
8.192392e-01 8.094763e-01 0.000000e+00
7.452775e-01 7.330807e-01 0.000000e+00
8.192392e-01 8.094763e-01 0.000000e+00
7.832504e-01 6.942517e-01 0.000000e+00
8.612275e-01 7.664658e-01 0.000000e+00
7.832504e-01 6.942517e-01 0.000000e+00
8.612275e-01 7.664658e-01 0.000000e+00
8.190805e-01 6.533876e-01 0.000000e+00
9.008227e-01 7.212385e-01 0.000000e+00
8.190805e-01 6.533876e-01 0.000000e+00
9.008227e-01 7.212385e-01 0.000000e+00
8.526676e-01 6.106201e-01 0.000000e+00
9.379206e-01 6.739367e-01 0.000000e+00
8.526676e-01 6.106201e-01 0.000000e+00
9.379206e-01 6.739367e-01 0.000000e+00
8.839183e-01 5.660827e-01 0.000000e+00
9.724235e-01 6.247051e-01 0.000000e+00
8.839183e-01 5.660827e-01 0.000000e+00
9.724235e-01 6.247051e-01 0.000000e+00
9.127462e-01 5.199118e-01 0.000000e+00
1.004241e+00 5.736915e-01 0.000000e+00
9.127462e-01 5.199118e-01 0.000000e+00
1.004241e+00 5.736915e-01 0.000000e+00
9.390721e-01 4.722460e-01 0.000000e+00
1.033288e+00 5.210466e-01 0.000000e+00
9.390721e-01 4.722460e-01 0.000000e+00
1.033288e+00 5.210466e-01 0.000000e+00
9.628235e-01 4.232267e-01 0.000000e+00
1.059488e+00 4.669241e-01 0.000000e+00
9.628235e-01 4.232267e-01 0.000000e+00
1.059488e+00 4.669241e-01 0.000000e+00
9.839355e-01 3.729975e-01 0.000000e+00
1.082772e+00 4.114804e-01 0.000000e+00
9.839355e-01 3.729975e-01 0.000000e+00
1.082772e+00 4.114804e-01 0.000000e+00
1.002350e+00 3.217043e-01 0.000000e+00
1.103078e+00 3.548745e-01 0.000000e+00
1.002350e+00 3.217043e-01 0.000000e+00
1.103078e+00 3.548745e-01 0.000000e+00
1.018018e+00 2.694951e-01 0.000000e+00
1.120352e+00 2.972678e-01 0.000000e+00
1.018018e+00 2.694951e-01 0.000000e+00
1.120352e+00 2.972678e-01 0.000000e+00
1.030895e+00 2.165198e-01 0.000000e+00
1.134549e+00 2.388238e-01 0.000000e+00
1.030895e+00 2.165198e-01 0.000000e+00
1.134549e+00 2.388238e-01 0.000000e+00
1.040948e+00 1.629295e-01 0.000000e+00
1.145630e+00 1.797078e-01 0.000000e+00
1.040948e+00 1.629295e-01 0.000000e+00
1.145630e+00 1.797078e-01 0.000000e+00
1.048147e+00 1.088770e-01 0.000000e+00
1.153566e+00 1.200865e-01 0.000000e+00
1.048147e+00 1.088770e-01 0.000000e+00
1.153566e+00 1.200865e-01 0.000000e+00
1.052475e+00 5.451578e-02 0.000000e+00
1.158336e+00 6.012773e-02 0.000000e+00
1.052475e+00 5.451578e-02 0.000000e+00
1.158336e+00 6.012773e-02 0.000000e+00
1.053919e+00 5.160610e-12 0.000000e+00
1.159927e+00 5.679690e-12 0.000000e+00
</DataArray>
</Points>
<Cells>
<DataArray type="Int32" Name="connectivity" format="ascii">
0 1 3 2
4 5 7 6
8 9 11 10
12 13 15 14
16 17 19 18
20 21 23 22
24 25 27 26
28 29 31 30
32 33 35 34
36 37 39 38
40 41 43 42
44 45 47 46
48 49 51 50
52 53 55 54
56 57 59 58
60 61 63 62
64 65 67 66
68 69 71 70
72 73 75 74
76 77 79 78
80 81 83 82
84 85 87 86
88 89 91 90
92 93 95 94
96 97 99 98
100 101 103 102
104 105 107 106
108 109 111 110
112 113 115 114
116 117 119 118
</DataArray>
<DataArray type="Int32" Name="offsets" format="ascii">
4
8
12
16
20
24
28
32
36
40
44
48
52
56
60
64
68
72
76
80
84
88
92
96
100
104
108
112
116
120
</DataArray>
<DataArray type="UInt8" Name="types" format="ascii">
9
9
9
9
9
9
9
9
9
9
9
9
9
9
9
9
9
9
9
9
9
9
9
9
9
9
9
9
9
9
</DataArray>
</Cells>
<PointData>
<DataArray type="Float32" Name="V1" format="ascii">
1.160820e+01
1.613400e+00
1.170709e+01
1.712289e+00
1.112649e+01
2.098032e+00
1.139777e+01
2.369306e+00
1.006903e+01
3.402031e+00
1.068278e+01
4.015782e+00
9.198659e+00
5.366829e+00
9.573111e+00
5.741281e+00
8.932991e+00
6.133384e+00
9.039703e+00
6.240096e+00
8.777817e+00
6.445644e+00
8.864693e+00
6.532519e+00
8.741230e+00
6.631544e+00
8.815022e+00
6.705336e+00
8.764425e+00
6.746215e+00
8.827182e+00
6.808973e+00
8.813046e+00
6.820398e+00
8.866398e+00
6.873750e+00
8.870533e+00
6.870466e+00
8.915991e+00
6.915925e+00
8.928676e+00
6.905793e+00
8.967522e+00
6.944639e+00
8.983635e+00
6.931791e+00
9.016937e+00
6.965093e+00
9.033809e+00
6.951669e+00
9.062445e+00
6.980304e+00
9.078736e+00
6.967370e+00
9.103425e+00
6.992059e+00
9.118513e+00
6.980104e+00
9.139845e+00
7.001436e+00
9.153489e+00
6.990643e+00
9.171949e+00
7.009102e+00
9.184108e+00
6.999497e+00
9.200095e+00
7.015484e+00
9.210828e+00
7.007017e+00
9.224672e+00
7.020861e+00
9.234078e+00
7.013448e+00
9.246054e+00
7.025423e+00
9.254250e+00
7.018970e+00
9.264584e+00
7.029305e+00
9.271683e+00
7.023720e+00
9.280567e+00
7.032603e+00
9.286674e+00
7.027802e+00
9.294265e+00
7.035393e+00
9.299475e+00
7.031299e+00
9.305904e+00
7.037728e+00
9.310297e+00
7.034278e+00
9.315673e+00
7.039654e+00
9.319319e+00
7.036791e+00
9.323730e+00
7.041203e+00
9.326686e+00
7.038883e+00
9.330204e+00
7.042401e+00
9.332515e+00
7.040587e+00
9.335196e+00
7.043268e+00
9.336899e+00
7.041932e+00
9.338784e+00
7.043817e+00
9.339905e+00
7.042938e+00
9.341025e+00
7.044057e+00
9.341581e+00
7.043621e+00
9.341953e+00
7.043992e+00
</DataArray>
<DataArray type="Float32" Name="V2" format="ascii">
9.943483e-01
1.100000e+00
9.959545e-01
1.101595e+00
9.959545e-01
1.101595e+00
1.000294e+00
1.106392e+00
1.000294e+00
1.106392e+00
1.006823e+00
1.114328e+00
1.006823e+00
1.114328e+00
1.013186e+00
1.121065e+00
1.013186e+00
1.121065e+00
1.018662e+00
1.126191e+00
1.018662e+00
1.126191e+00
1.023334e+00
1.130614e+00
1.023334e+00
1.130614e+00
1.027317e+00
1.134409e+00
1.027317e+00
1.134409e+00
1.030746e+00
1.137685e+00
1.030746e+00
1.137685e+00
1.033718e+00
1.140527e+00
1.033718e+00
1.140527e+00
1.036310e+00
1.143008e+00
1.036310e+00
1.143008e+00
1.038585e+00
1.145185e+00
1.038585e+00
1.145185e+00
1.040592e+00
1.147107e+00
1.040592e+00
1.147107e+00
1.042369e+00
1.148810e+00
1.042369e+00
1.148810e+00
1.043949e+00
1.150325e+00
1.043949e+00
1.150325e+00
1.045357e+00
1.151676e+00
1.045357e+00
1.151676e+00
1.046614e+00
1.152882e+00
1.046614e+00
1.152882e+00
1.047735e+00
1.153961e+00
1.047735e+00
1.153961e+00
1.048736e+00
1.154924e+00
1.048736e+00
1.154924e+00
1.049627e+00
1.155782e+00
1.049627e+00
1.155782e+00
1.050417e+00
1.156544e+00
1.050417e+00
1.156544e+00
1.051115e+00
1.157216e+00
1.051115e+00
1.157216e+00
1.051725e+00
1.157805e+00
1.051725e+00
1.157805e+00
1.052253e+00
1.158316e+00
1.052253e+00
1.158316e+00
1.052704e+00
1.158752e+00
1.052704e+00
1.158752e+00
1.053080e+00
1.159116e+00
1.053080e+00
1.159116e+00
1.053385e+00
1.159410e+00
1.053385e+00
1.159410e+00
1.053620e+00
1.159638e+00
1.053620e+00
1.159638e+00
1.053786e+00
1.159799e+00
1.053786e+00
1.159799e+00
1.053886e+00
1.159895e+00
1.053886e+00
1.159895e+00
1.053919e+00
1.159927e+00
</DataArray>
<DataArray type="Float32" Name="V3" format="ascii">
0.000000e+00
0.000000e+00
4.090589e-03
1.633694e-03
4.090589e-03
1.633694e-03
7.344899e-03
3.163687e-03
7.344899e-03
3.163687e-03
9.399026e-03
3.891108e-03
9.399026e-03
3.891108e-03
1.078199e-02
3.939312e-03
1.078199e-02
3.939312e-03
1.122507e-02
4.386370e-03
1.122507e-02
4.386370e-03
1.130180e-02
5.018523e-03
1.130180e-02
5.018523e-03
1.121365e-02
5.643169e-03
1.121365e-02
5.643169e-03
1.103223e-02
6.179098e-03
1.103223e-02
6.179098e-03
1.079180e-02
6.598225e-03
1.079180e-02
6.598225e-03
1.050853e-02
6.897168e-03
1.050853e-02
6.897168e-03
1.019022e-02
7.082675e-03
1.019022e-02
7.082675e-03
9.840791e-03
7.165178e-03
9.840791e-03
7.165178e-03
9.462406e-03
7.155857e-03
9.462406e-03
7.155857e-03
9.056535e-03
7.065379e-03
9.056535e-03
7.065379e-03
8.624425e-03
6.903429e-03
8.624425e-03
6.903429e-03
8.167312e-03
6.678602e-03
8.167312e-03
6.678602e-03
7.686503e-03
6.398458e-03
7.686503e-03
6.398458e-03
7.183398e-03
6.069649e-03
7.183398e-03
6.069649e-03
6.659485e-03
5.698044e-03
6.659485e-03
5.698044e-03
6.116325e-03
5.288866e-03
6.116325e-03
5.288866e-03
5.555544e-03
4.846804e-03
5.555544e-03
4.846804e-03
4.978811e-03
4.376106e-03
4.978811e-03
4.376106e-03
4.387834e-03
3.880671e-03
4.387834e-03
3.880671e-03
3.784348e-03
3.364109e-03
3.784348e-03
3.364109e-03
3.170110e-03
2.829803e-03
3.170110e-03
2.829803e-03
2.546892e-03
2.280956e-03
2.546892e-03
2.280956e-03
1.916476e-03
1.720631e-03
1.916476e-03
1.720631e-03
1.280656e-03
1.151784e-03
1.280656e-03
1.151784e-03
6.412302e-04
5.772961e-04
6.412302e-04
5.772961e-04
0.000000e+00
0.000000e+00
</DataArray>
<DataArray type="Float32" Name="V4" format="ascii">
8.500000e-01
1.000000e+00
8.500000e-01
1.000000e+00
8.500000e-01
1.000000e+00
8.500000e-01
1.000000e+00
8.500000e-01
1.000000e+00
8.500000e-01
1.000000e+00
8.500000e-01
1.000000e+00
8.500000e-01
1.000000e+00
8.500000e-01
1.000000e+00
8.500000e-01
1.000000e+00
8.500000e-01
1.000000e+00
8.500000e-01
1.000000e+00
8.500000e-01
1.000000e+00
8.500000e-01
1.000000e+00
8.500000e-01
1.000000e+00
8.500000e-01
1.000000e+00
8.500000e-01
1.000000e+00
8.500000e-01
1.000000e+00
8.500000e-01
1.000000e+00
8.500000e-01
1.000000e+00
8.500000e-01
1.000000e+00
8.500000e-01
1.000000e+00
8.500000e-01
1.000000e+00
8.500000e-01
1.000000e+00
8.500000e-01
1.000000e+00
8.500000e-01
1.000000e+00
8.500000e-01
1.000000e+00
8.500000e-01
1.000000e+00
8.500000e-01
1.000000e+00
8.500000e-01
1.000000e+00
8.500000e-01
1.000000e+00
8.500000e-01
1.000000e+00
8.500000e-01
1.000000e+00
8.500000e-01
1.000000e+00
8.500000e-01
1.000000e+00
8.500000e-01
1.000000e+00
8.500000e-01
1.000000e+00
8.500000e-01
1.000000e+00
8.500000e-01
1.000000e+00
8.500000e-01
1.000000e+00
8.500000e-01
1.000000e+00
8.500000e-01
1.000000e+00
8.500000e-01
1.000000e+00
8.500000e-01
1.000000e+00
8.500000e-01
1.000000e+00
8.500000e-01
1.000000e+00
8.500000e-01
1.000000e+00
8.500000e-01
1.000000e+00
8.500000e-01
1.000000e+00
8.500000e-01
1.000000e+00
8.500000e-01
1.000000e+00
8.500000e-01
1.000000e+00
8.500000e-01
1.000000e+00
8.500000e-01
1.000000e+00
8.500000e-01
1.000000e+00
8.500000e-01
1.000000e+00
8.500000e-01
1.000000e+00
8.500000e-01
1.000000e+00
8.500000e-01
1.000000e+00
8.500000e-01
1.000000e+00
</DataArray>
<DataArray type="Float32" Name="V5" format="ascii">
0.000000e+00
0.000000e+00
5.235988e-02
5.235988e-02
5.235988e-02
5.235988e-02
1.047198e-01
1.047198e-01
1.047198e-01
1.047198e-01
1.570796e-01
1.570796e-01
1.570796e-01
1.570796e-01
2.094395e-01
2.094395e-01
2.094395e-01
2.094395e-01
2.617994e-01
2.617994e-01
2.617994e-01
2.617994e-01
3.141593e-01
3.141593e-01
3.141593e-01
3.141593e-01
3.665191e-01
3.665191e-01
3.665191e-01
3.665191e-01
4.188790e-01
4.188790e-01
4.188790e-01
4.188790e-01
4.712389e-01
4.712389e-01
4.712389e-01
4.712389e-01
5.235988e-01
5.235988e-01
5.235988e-01
5.235988e-01
5.759587e-01
5.759587e-01
5.759587e-01
5.759587e-01
6.283185e-01
6.283185e-01
6.283185e-01
6.283185e-01
6.806784e-01
6.806784e-01
6.806784e-01
6.806784e-01
7.330383e-01
7.330383e-01
7.330383e-01
7.330383e-01
7.853982e-01
7.853982e-01
7.853982e-01
7.853982e-01
8.377580e-01
8.377580e-01
8.377580e-01
8.377580e-01
8.901179e-01
8.901179e-01
8.901179e-01
8.901179e-01
9.424778e-01
9.424778e-01
9.424778e-01
9.424778e-01
9.948377e-01
9.948377e-01
9.948377e-01
9.948377e-01
1.047198e+00
1.047198e+00
1.047198e+00
1.047198e+00
1.099557e+00
1.099557e+00
1.099557e+00
1.099557e+00
1.151917e+00
1.151917e+00
1.151917e+00
1.151917e+00
1.204277e+00
1.204277e+00
1.204277e+00
1.204277e+00
1.256637e+00
1.256637e+00
1.256637e+00
1.256637e+00
1.308997e+00
1.308997e+00
1.308997e+00
1.308997e+00
1.361357e+00
1.361357e+00
1.361357e+00
1.361357e+00
1.413717e+00
1.413717e+00
1.413717e+00
1.413717e+00
1.466077e+00
1.466077e+00
1.466077e+00
1.466077e+00
1.518436e+00
1.518436e+00
1.518436e+00
1.518436e+00
1.570796e+00
1.570796e+00
</DataArray>
</PointData>
</Piece></UnstructuredGrid>
</VTKFile>
