<?xml version="1.0"?>
<VTKFile type="UnstructuredGrid" version="0.1" byte_order="LittleEndian" compressor="vtkZLibDataCompressor">
<UnstructuredGrid>
<Piece NumberOfPoints="120" NumberOfCells="30">
<Points>
<DataArray type="Float32" NumberOfComponents="3" format="ascii">
0.000000e+00 5.220414e-01 0.000000e+00
0.000000e+00 6.000000e-01 0.000000e+00
6.729539e-02 5.220850e-01 0.000000e+00
6.723349e-02 6.000000e-01 0.000000e+00
6.729539e-02 5.220850e-01 0.000000e+00
6.723349e-02 6.000000e-01 0.000000e+00
1.345844e-01 5.221745e-01 0.000000e+00
1.344596e-01 6.000000e-01 0.000000e+00
1.345844e-01 5.221745e-01 0.000000e+00
1.344596e-01 6.000000e-01 0.000000e+00
2.018575e-01 5.223235e-01 0.000000e+00
2.016713e-01 6.000000e-01 0.000000e+00
2.018575e-01 5.223235e-01 0.000000e+00
2.016713e-01 6.000000e-01 0.000000e+00
2.691067e-01 5.225314e-01 0.000000e+00
2.688609e-01 6.000000e-01 0.000000e+00
2.691067e-01 5.225314e-01 0.000000e+00
2.688609e-01 6.000000e-01 0.000000e+00
3.363232e-01 5.227975e-01 0.000000e+00
3.360208e-01 6.000000e-01 0.000000e+00
3.363232e-01 5.227975e-01 0.000000e+00
3.360208e-01 6.000000e-01 0.000000e+00
4.034976e-01 5.231207e-01 0.000000e+00
4.031434e-01 6.000000e-01 0.000000e+00
4.034976e-01 5.231207e-01 0.000000e+00
4.031434e-01 6.000000e-01 0.000000e+00
4.706192e-01 5.235000e-01 0.000000e+00
4.702213e-01 6.000000e-01 0.000000e+00
4.706192e-01 5.235000e-01 0.000000e+00
4.702213e-01 6.000000e-01 0.000000e+00
5.376758e-01 5.239341e-01 0.000000e+00
5.372480e-01 6.000000e-01 0.000000e+00
5.376758e-01 5.239341e-01 0.000000e+00
5.372480e-01 6.000000e-01 0.000000e+00
6.046527e-01 5.244220e-01 0.000000e+00
6.042192e-01 6.000000e-01 0.000000e+00
6.046527e-01 5.244220e-01 0.000000e+00
6.042192e-01 6.000000e-01 0.000000e+00
6.715310e-01 5.249626e-01 0.000000e+00
6.711352e-01 6.000000e-01 0.000000e+00
6.715310e-01 5.249626e-01 0.000000e+00
6.711352e-01 6.000000e-01 0.000000e+00
7.382854e-01 5.255554e-01 0.000000e+00
7.380054e-01 6.000000e-01 0.000000e+00
7.382854e-01 5.255554e-01 0.000000e+00
7.380054e-01 6.000000e-01 0.000000e+00
8.048789e-01 5.262004e-01 0.000000e+00
8.048571e-01 6.000000e-01 0.000000e+00
8.048789e-01 5.262004e-01 0.000000e+00
8.048571e-01 6.000000e-01 0.000000e+00
8.712537e-01 5.268983e-01 0.000000e+00
8.717498e-01 6.000000e-01 0.000000e+00
8.712537e-01 5.268983e-01 0.000000e+00
8.717498e-01 6.000000e-01 0.000000e+00
9.373126e-01 5.276499e-01 0.000000e+00
9.388018e-01 6.000000e-01 0.000000e+00
9.373126e-01 5.276499e-01 0.000000e+00
9.388018e-01 6.000000e-01 0.000000e+00
1.002881e+00 5.284513e-01 0.000000e+00
1.006227e+00 6.000000e-01 0.000000e+00
1.002881e+00 5.284513e-01 0.000000e+00
1.006227e+00 6.000000e-01 0.000000e+00
1.067620e+00 5.292675e-01 0.000000e+00
1.074366e+00 6.000000e-01 0.000000e+00
1.067620e+00 5.292675e-01 0.000000e+00
1.074366e+00 6.000000e-01 0.000000e+00
1.130901e+00 5.299008e-01 0.000000e+00
1.143450e+00 6.000000e-01 0.000000e+00
1.130901e+00 5.299008e-01 0.000000e+00
1.143450e+00 6.000000e-01 0.000000e+00
1.192737e+00 5.288018e-01 0.000000e+00
1.210826e+00 5.979240e-01 0.000000e+00
1.192737e+00 5.288018e-01 0.000000e+00
1.210826e+00 5.979240e-01 0.000000e+00
1.252115e+00 5.173868e-01 0.000000e+00
1.276270e+00 5.833120e-01 0.000000e+00
1.252115e+00 5.173868e-01 0.000000e+00
1.276270e+00 5.833120e-01 0.000000e+00
1.307819e+00 4.964314e-01 0.000000e+00
1.339187e+00 5.581632e-01 0.000000e+00
1.307819e+00 4.964314e-01 0.000000e+00
1.339187e+00 5.581632e-01 0.000000e+00
1.359292e+00 4.671462e-01 0.000000e+00
1.397748e+00 5.237607e-01 0.000000e+00
1.359292e+00 4.671462e-01 0.000000e+00
1.397748e+00 5.237607e-01 0.000000e+00
1.406053e+00 4.307960e-01 0.000000e+00
1.450860e+00 4.816146e-01 0.000000e+00
1.406053e+00 4.307960e-01 0.000000e+00
1.450860e+00 4.816146e-01 0.000000e+00
1.447748e+00 3.885130e-01 0.000000e+00
1.497952e+00 4.331272e-01 0.000000e+00
1.447748e+00 3.885130e-01 0.000000e+00
1.497952e+00 4.331272e-01 0.000000e+00
1.484135e+00 3.413160e-01 0.000000e+00
1.538766e+00 3.795268e-01 0.000000e+00
1.484135e+00 3.413160e-01 0.000000e+00
1.538766e+00 3.795268e-01 0.000000e+00
1.515061e+00 2.901138e-01 0.000000e+00
1.573220e+00 3.218602e-01 0.000000e+00
1.515061e+00 2.901138e-01 0.000000e+00
1.573220e+00 3.218602e-01 0.000000e+00
1.540433e+00 2.357188e-01 0.000000e+00
1.601319e+00 2.610171e-01 0.000000e+00
1.540433e+00 2.357188e-01 0.000000e+00
1.601319e+00 2.610171e-01 0.000000e+00
1.560197e+00 1.788626e-01 0.000000e+00
1.623102e+00 1.977640e-01 0.000000e+00
1.560197e+00 1.788626e-01 0.000000e+00
1.623102e+00 1.977640e-01 0.000000e+00
1.574327e+00 1.202142e-01 0.000000e+00
1.638619e+00 1.327758e-01 0.000000e+00
1.574327e+00 1.202142e-01 0.000000e+00
1.638619e+00 1.327758e-01 0.000000e+00
1.582808e+00 6.039585e-02 0.000000e+00
1.647910e+00 6.666404e-02 0.000000e+00
1.582808e+00 6.039585e-02 0.000000e+00
1.647910e+00 6.666404e-02 0.000000e+00
1.585636e+00 7.764210e-12 0.000000e+00
1.651004e+00 8.084290e-12 0.000000e+00
</DataArray>
</Points>
<Cells>
<DataArray type="Int32" Name="connectivity" format="ascii">
0 1 3 2
4 5 7 6
8 9 11 10
12 13 15 14
16 17 19 18
20 21 23 22
24 25 27 26
28 29 31 30
32 33 35 34
36 37 39 38
40 41 43 42
44 45 47 46
48 49 51 50
52 53 55 54
56 57 59 58
60 61 63 62
64 65 67 66
68 69 71 70
72 73 75 74
76 77 79 78
80 81 83 82
84 85 87 86
88 89 91 90
92 93 95 94
96 97 99 98
100 101 103 102
104 105 107 106
108 109 111 110
112 113 115 114
116 117 119 118
</DataArray>
<DataArray type="Int32" Name="offsets" format="ascii">
4
8
12
16
20
24
28
32
36
40
44
48
52
56
60
64
68
72
76
80
84
88
92
96
100
104
108
112
116
120
</DataArray>
<DataArray type="UInt8" Name="types" format="ascii">
9
9
9
9
9
9
9
9
9
9
9
9
9
9
9
9
9
9
9
9
9
9
9
9
9
9
9
9
9
9
</DataArray>
</Cells>
<PointData>
<DataArray type="Float32" Name="V1" format="ascii">
4.245600e+01
-1.299820e+00
4.250393e+01
-1.251889e+00
4.258532e+01
-1.303483e+00
4.271994e+01
-1.168860e+00
4.288494e+01
-1.274878e+00
4.311334e+01
-1.046479e+00
4.336135e+01
-1.208135e+00
4.368593e+01
-8.835511e-01
4.401947e+01
-1.102348e+00
4.444406e+01
-6.777575e-01
4.486614e+01
-9.556869e-01
4.539598e+01
-4.258475e-01
4.590988e+01
-7.652337e-01
4.655182e+01
-1.232908e-01
4.716046e+01
-5.264707e-01
4.792329e+01
2.363601e-01
4.862804e+01
-2.322926e-01
4.952298e+01
6.626533e-01
5.032122e+01
1.288286e-01
5.136280e+01
1.170414e+00
5.224309e+01
5.763505e-01
5.345058e+01
1.783836e+00
5.438335e+01
1.144401e+00
5.578320e+01
2.544251e+00
5.670271e+01
1.894976e+00
5.833270e+01
3.524970e+00
5.910282e+01
2.944459e+00
6.101813e+01
4.859763e+00
6.136939e+01
4.518706e+00
6.364855e+01
6.797867e+00
6.306725e+01
7.071786e+00
6.581541e+01
9.819946e+00
6.331592e+01
1.161365e+01
6.675565e+01
1.505338e+01
6.058601e+01
2.105778e+01
6.561460e+01
2.608637e+01
6.092687e+01
2.930225e+01
6.452034e+01
3.289571e+01
6.333649e+01
3.362338e+01
6.670271e+01
3.698960e+01
6.714031e+01
3.667324e+01
7.038442e+01
3.991735e+01
7.160121e+01
3.898513e+01
7.465147e+01
4.203539e+01
7.618903e+01
4.082690e+01
7.896336e+01
4.360122e+01
8.056504e+01
4.233479e+01
8.300782e+01
4.477757e+01
8.452217e+01
4.358351e+01
8.660241e+01
4.566375e+01
8.793960e+01
4.461583e+01
8.964314e+01
4.631937e+01
9.075059e+01
4.545733e+01
9.207310e+01
4.677984e+01
9.292089e+01
4.612386e+01
9.386295e+01
4.706591e+01
9.443476e+01
4.662547e+01
9.499862e+01
4.718933e+01
9.528623e+01
4.696842e+01
9.547392e+01
4.715611e+01
</DataArray>
<DataArray type="Float32" Name="V2" format="ascii">
5.220414e-01
6.000000e-01
5.248915e-01
6.026965e-01
5.248915e-01
6.026965e-01
5.333818e-01
6.107680e-01
5.333818e-01
6.107680e-01
5.474703e-01
6.241614e-01
5.474703e-01
6.241614e-01
5.670633e-01
6.427879e-01
5.670633e-01
6.427879e-01
5.920304e-01
6.665241e-01
5.920304e-01
6.665241e-01
6.222050e-01
6.952121e-01
6.222050e-01
6.952121e-01
6.573842e-01
7.286605e-01
6.573842e-01
7.286605e-01
6.973301e-01
7.666457e-01
6.973301e-01
7.666457e-01
7.417700e-01
8.089137e-01
7.417700e-01
8.089137e-01
7.903965e-01
8.551828e-01
7.903965e-01
8.551828e-01
8.428669e-01
9.051489e-01
8.428669e-01
9.051489e-01
8.988010e-01
9.584933e-01
8.988010e-01
9.584933e-01
9.577746e-01
1.014898e+00
9.577746e-01
1.014898e+00
1.019305e+00
1.074068e+00
1.019305e+00
1.074068e+00
1.082815e+00
1.135774e+00
1.082815e+00
1.135774e+00
1.147546e+00
1.199888e+00
1.147546e+00
1.199888e+00
1.212353e+00
1.266219e+00
1.212353e+00
1.266219e+00
1.275766e+00
1.331030e+00
1.275766e+00
1.331030e+00
1.331901e+00
1.388065e+00
1.331901e+00
1.388065e+00
1.380821e+00
1.438852e+00
1.380821e+00
1.438852e+00
1.423218e+00
1.483185e+00
1.423218e+00
1.483185e+00
1.459714e+00
1.521317e+00
1.459714e+00
1.521317e+00
1.490819e+00
1.553677e+00
1.490819e+00
1.553677e+00
1.516969e+00
1.580734e+00
1.516969e+00
1.580734e+00
1.538524e+00
1.602918e+00
1.538524e+00
1.602918e+00
1.555779e+00
1.620595e+00
1.555779e+00
1.620595e+00
1.568969e+00
1.634056e+00
1.568969e+00
1.634056e+00
1.578268e+00
1.643521e+00
1.578268e+00
1.643521e+00
1.583800e+00
1.649140e+00
1.583800e+00
1.649140e+00
1.585636e+00
1.651004e+00
</DataArray>
<DataArray type="Float32" Name="V3" format="ascii">
0.000000e+00
0.000000e+00
3.987935e-02
3.573978e-02
3.987935e-02
3.573978e-02
7.926505e-02
7.100597e-02
7.926505e-02
7.100597e-02
1.176629e-01
1.053277e-01
1.176629e-01
1.053277e-01
1.545857e-01
1.382387e-01
1.545857e-01
1.382387e-01
1.895533e-01
1.692798e-01
1.895533e-01
1.692798e-01
2.220958e-01
1.980020e-01
2.220958e-01
1.980020e-01
2.517553e-01
2.239686e-01
2.517553e-01
2.239686e-01
2.780881e-01
2.467585e-01
2.780881e-01
2.467585e-01
3.006669e-01
2.659690e-01
3.006669e-01
2.659690e-01
3.190816e-01
2.812201e-01
3.190816e-01
2.812201e-01
3.329402e-01
2.921600e-01
3.329402e-01
2.921600e-01
3.418679e-01
2.984719e-01
3.418679e-01
2.984719e-01
3.455035e-01
2.998846e-01
3.455035e-01
2.998846e-01
3.434923e-01
2.961873e-01
3.434923e-01
2.961873e-01
3.354723e-01
2.872462e-01
3.354723e-01
2.872462e-01
3.210551e-01
2.730046e-01
3.210551e-01
2.730046e-01
2.998891e-01
2.533085e-01
2.998891e-01
2.533085e-01
2.732633e-01
2.279749e-01
2.732633e-01
2.279749e-01
2.480338e-01
2.058999e-01
2.480338e-01
2.058999e-01
2.239875e-01
1.862101e-01
2.239875e-01
1.862101e-01
2.008754e-01
1.678899e-01
2.008754e-01
1.678899e-01
1.783416e-01
1.501412e-01
1.783416e-01
1.501412e-01
1.561182e-01
1.324588e-01
1.561182e-01
1.324588e-01
1.340121e-01
1.145533e-01
1.340121e-01
1.145533e-01
1.118982e-01
9.628634e-02
1.118982e-01
9.628634e-02
8.970623e-02
7.761975e-02
8.970623e-02
7.761975e-02
6.740806e-02
5.857998e-02
6.740806e-02
5.857998e-02
4.500631e-02
3.923381e-02
4.500631e-02
3.923381e-02
2.252469e-02
1.967226e-02
2.252469e-02
1.967226e-02
0.000000e+00
0.000000e+00
</DataArray>
<DataArray type="Float32" Name="V4" format="ascii">
8.500000e-01
1.000000e+00
8.500000e-01
1.000000e+00
8.500000e-01
1.000000e+00
8.500000e-01
1.000000e+00
8.500000e-01
1.000000e+00
8.500000e-01
1.000000e+00
8.500000e-01
1.000000e+00
8.500000e-01
1.000000e+00
8.500000e-01
1.000000e+00
8.500000e-01
1.000000e+00
8.500000e-01
1.000000e+00
8.500000e-01
1.000000e+00
8.500000e-01
1.000000e+00
8.500000e-01
1.000000e+00
8.500000e-01
1.000000e+00
8.500000e-01
1.000000e+00
8.500000e-01
1.000000e+00
8.500000e-01
1.000000e+00
8.500000e-01
1.000000e+00
8.500000e-01
1.000000e+00
8.500000e-01
1.000000e+00
8.500000e-01
1.000000e+00
8.500000e-01
1.000000e+00
8.500000e-01
1.000000e+00
8.500000e-01
1.000000e+00
8.500000e-01
1.000000e+00
8.500000e-01
1.000000e+00
8.500000e-01
1.000000e+00
8.500000e-01
1.000000e+00
8.500000e-01
1.000000e+00
8.500000e-01
1.000000e+00
8.500000e-01
1.000000e+00
8.500000e-01
1.000000e+00
8.500000e-01
1.000000e+00
8.500000e-01
1.000000e+00
8.500000e-01
1.000000e+00
8.500000e-01
1.000000e+00
8.500000e-01
1.000000e+00
8.500000e-01
1.000000e+00
8.500000e-01
1.000000e+00
8.500000e-01
1.000000e+00
8.500000e-01
1.000000e+00
8.500000e-01
1.000000e+00
8.500000e-01
1.000000e+00
8.500000e-01
1.000000e+00
8.500000e-01
1.000000e+00
8.500000e-01
1.000000e+00
8.500000e-01
1.000000e+00
8.500000e-01
1.000000e+00
8.500000e-01
1.000000e+00
8.500000e-01
1.000000e+00
8.500000e-01
1.000000e+00
8.500000e-01
1.000000e+00
8.500000e-01
1.000000e+00
8.500000e-01
1.000000e+00
8.500000e-01
1.000000e+00
8.500000e-01
1.000000e+00
8.500000e-01
1.000000e+00
8.500000e-01
1.000000e+00
8.500000e-01
1.000000e+00
</DataArray>
<DataArray type="Float32" Name="V5" format="ascii">
0.000000e+00
0.000000e+00
5.235988e-02
5.235988e-02
5.235988e-02
5.235988e-02
1.047198e-01
1.047198e-01
1.047198e-01
1.047198e-01
1.570796e-01
1.570796e-01
1.570796e-01
1.570796e-01
2.094395e-01
2.094395e-01
2.094395e-01
2.094395e-01
2.617994e-01
2.617994e-01
2.617994e-01
2.617994e-01
3.141593e-01
3.141593e-01
3.141593e-01
3.141593e-01
3.665191e-01
3.665191e-01
3.665191e-01
3.665191e-01
4.188790e-01
4.188790e-01
4.188790e-01
4.188790e-01
4.712389e-01
4.712389e-01
4.712389e-01
4.712389e-01
5.235988e-01
5.235988e-01
5.235988e-01
5.235988e-01
5.759587e-01
5.759587e-01
5.759587e-01
5.759587e-01
6.283185e-01
6.283185e-01
6.283185e-01
6.283185e-01
6.806784e-01
6.806784e-01
6.806784e-01
6.806784e-01
7.330383e-01
7.330383e-01
7.330383e-01
7.330383e-01
7.853982e-01
7.853982e-01
7.853982e-01
7.853982e-01
8.377580e-01
8.377580e-01
8.377580e-01
8.377580e-01
8.901179e-01
8.901179e-01
8.901179e-01
8.901179e-01
9.424778e-01
9.424778e-01
9.424778e-01
9.424778e-01
9.948377e-01
9.948377e-01
9.948377e-01
9.948377e-01
1.047198e+00
1.047198e+00
1.047198e+00
1.047198e+00
1.099557e+00
1.099557e+00
1.099557e+00
1.099557e+00
1.151917e+00
1.151917e+00
1.151917e+00
1.151917e+00
1.204277e+00
1.204277e+00
1.204277e+00
1.204277e+00
1.256637e+00
1.256637e+00
1.256637e+00
1.256637e+00
1.308997e+00
1.308997e+00
1.308997e+00
1.308997e+00
1.361357e+00
1.361357e+00
1.361357e+00
1.361357e+00
1.413717e+00
1.413717e+00
1.413717e+00
1.413717e+00
1.466077e+00
1.466077e+00
1.466077e+00
1.466077e+00
1.518436e+00
1.518436e+00
1.518436e+00
1.518436e+00
1.570796e+00
1.570796e+00
</DataArray>
</PointData>
</Piece></UnstructuredGrid>
</VTKFile>
