<?xml version="1.0"?>
<VTKFile type="UnstructuredGrid" version="0.1" byte_order="LittleEndian" compressor="vtkZLibDataCompressor">
<UnstructuredGrid>
<Piece NumberOfPoints="120" NumberOfCells="30">
<Points>
<DataArray type="Float32" NumberOfComponents="3" format="ascii">
0.000000e+00 4.572730e-01 0.000000e+00
0.000000e+00 5.200000e-01 0.000000e+00
7.500593e-02 4.573134e-01 0.000000e+00
7.497342e-02 5.200000e-01 0.000000e+00
7.500593e-02 4.573134e-01 0.000000e+00
7.497342e-02 5.200000e-01 0.000000e+00
1.500029e-01 4.573819e-01 0.000000e+00
1.499369e-01 5.200000e-01 0.000000e+00
1.500029e-01 4.573819e-01 0.000000e+00
1.499369e-01 5.200000e-01 0.000000e+00
2.249783e-01 4.574958e-01 0.000000e+00
2.248795e-01 5.200000e-01 0.000000e+00
2.249783e-01 4.574958e-01 0.000000e+00
2.248795e-01 5.200000e-01 0.000000e+00
2.999213e-01 4.576549e-01 0.000000e+00
2.997904e-01 5.200000e-01 0.000000e+00
2.999213e-01 4.576549e-01 0.000000e+00
2.997904e-01 5.200000e-01 0.000000e+00
3.748206e-01 4.578587e-01 0.000000e+00
3.746586e-01 5.200000e-01 0.000000e+00
3.748206e-01 4.578587e-01 0.000000e+00
3.746586e-01 5.200000e-01 0.000000e+00
4.496645e-01 4.581063e-01 0.000000e+00
4.494728e-01 5.200000e-01 0.000000e+00
4.496645e-01 4.581063e-01 0.000000e+00
4.494728e-01 5.200000e-01 0.000000e+00
5.244401e-01 4.583969e-01 0.000000e+00
5.242212e-01 5.200000e-01 0.000000e+00
5.244401e-01 4.583969e-01 0.000000e+00
5.242212e-01 5.200000e-01 0.000000e+00
5.991341e-01 4.587297e-01 0.000000e+00
5.988916e-01 5.200000e-01 0.000000e+00
5.991341e-01 4.587297e-01 0.000000e+00
5.988916e-01 5.200000e-01 0.000000e+00
6.737317e-01 4.591033e-01 0.000000e+00
6.734717e-01 5.200000e-01 0.000000e+00
6.737317e-01 4.591033e-01 0.000000e+00
6.734717e-01 5.200000e-01 0.000000e+00
7.482164e-01 4.595167e-01 0.000000e+00
7.479494e-01 5.200000e-01 0.000000e+00
7.482164e-01 4.595167e-01 0.000000e+00
7.479494e-01 5.200000e-01 0.000000e+00
8.225695e-01 4.599684e-01 0.000000e+00
8.223134e-01 5.200000e-01 0.000000e+00
8.225695e-01 4.599684e-01 0.000000e+00
8.223134e-01 5.200000e-01 0.000000e+00
8.967690e-01 4.604568e-01 0.000000e+00
8.965553e-01 5.200000e-01 0.000000e+00
8.967690e-01 4.604568e-01 0.000000e+00
8.965553e-01 5.200000e-01 0.000000e+00
9.707875e-01 4.609800e-01 0.000000e+00
9.706721e-01 5.200000e-01 0.000000e+00
9.707875e-01 4.609800e-01 0.000000e+00
9.706721e-01 5.200000e-01 0.000000e+00
1.044589e+00 4.615355e-01 0.000000e+00
1.044672e+00 5.200000e-01 0.000000e+00
1.044589e+00 4.615355e-01 0.000000e+00
1.044672e+00 5.200000e-01 0.000000e+00
1.118123e+00 4.621196e-01 0.000000e+00
1.118583e+00 5.200000e-01 0.000000e+00
1.118123e+00 4.621196e-01 0.000000e+00
1.118583e+00 5.200000e-01 0.000000e+00
1.191312e+00 4.627266e-01 0.000000e+00
1.192475e+00 5.200000e-01 0.000000e+00
1.191312e+00 4.627266e-01 0.000000e+00
1.192475e+00 5.200000e-01 0.000000e+00
1.264029e+00 4.633485e-01 0.000000e+00
1.266490e+00 5.200000e-01 0.000000e+00
1.264029e+00 4.633485e-01 0.000000e+00
1.266490e+00 5.200000e-01 0.000000e+00
1.336050e+00 4.639791e-01 0.000000e+00
1.340894e+00 5.200000e-01 0.000000e+00
1.336050e+00 4.639791e-01 0.000000e+00
1.340894e+00 5.200000e-01 0.000000e+00
1.406913e+00 4.646204e-01 0.000000e+00
1.416123e+00 5.200000e-01 0.000000e+00
1.406913e+00 4.646204e-01 0.000000e+00
1.416123e+00 5.200000e-01 0.000000e+00
1.476105e+00 4.651863e-01 0.000000e+00
1.491164e+00 5.200000e-01 0.000000e+00
1.476105e+00 4.651863e-01 0.000000e+00
1.491164e+00 5.200000e-01 0.000000e+00
1.543413e+00 4.575126e-01 0.000000e+00
1.562920e+00 5.093862e-01 0.000000e+00
1.543413e+00 4.575126e-01 0.000000e+00
1.562920e+00 5.093862e-01 0.000000e+00
1.606131e+00 4.352276e-01 0.000000e+00
1.631569e+00 4.834266e-01 0.000000e+00
1.606131e+00 4.352276e-01 0.000000e+00
1.631569e+00 4.834266e-01 0.000000e+00
1.662922e+00 4.018351e-01 0.000000e+00
1.694555e+00 4.453255e-01 0.000000e+00
1.662922e+00 4.018351e-01 0.000000e+00
1.694555e+00 4.453255e-01 0.000000e+00
1.712953e+00 3.593385e-01 0.000000e+00
1.750179e+00 3.973036e-01 0.000000e+00
1.712953e+00 3.593385e-01 0.000000e+00
1.750179e+00 3.973036e-01 0.000000e+00
1.755724e+00 3.095396e-01 0.000000e+00
1.797607e+00 3.414692e-01 0.000000e+00
1.755724e+00 3.095396e-01 0.000000e+00
1.797607e+00 3.414692e-01 0.000000e+00
1.790932e+00 2.540075e-01 0.000000e+00
1.836475e+00 2.796391e-01 0.000000e+00
1.790932e+00 2.540075e-01 0.000000e+00
1.836475e+00 2.796391e-01 0.000000e+00
1.818409e+00 1.941189e-01 0.000000e+00
1.866670e+00 2.133483e-01 0.000000e+00
1.818409e+00 1.941189e-01 0.000000e+00
1.866670e+00 2.133483e-01 0.000000e+00
1.838070e+00 1.310957e-01 0.000000e+00
1.888192e+00 1.439028e-01 0.000000e+00
1.838070e+00 1.310957e-01 0.000000e+00
1.888192e+00 1.439028e-01 0.000000e+00
1.849876e+00 6.604531e-02 0.000000e+00
1.901080e+00 7.244226e-02 0.000000e+00
1.849876e+00 6.604531e-02 0.000000e+00
1.901080e+00 7.244226e-02 0.000000e+00
1.853812e+00 9.077350e-12 0.000000e+00
1.905372e+00 9.329820e-12 0.000000e+00
</DataArray>
</Points>
<Cells>
<DataArray type="Int32" Name="connectivity" format="ascii">
0 1 3 2
4 5 7 6
8 9 11 10
12 13 15 14
16 17 19 18
20 21 23 22
24 25 27 26
28 29 31 30
32 33 35 34
36 37 39 38
40 41 43 42
44 45 47 46
48 49 51 50
52 53 55 54
56 57 59 58
60 61 63 62
64 65 67 66
68 69 71 70
72 73 75 74
76 77 79 78
80 81 83 82
84 85 87 86
88 89 91 90
92 93 95 94
96 97 99 98
100 101 103 102
104 105 107 106
108 109 111 110
112 113 115 114
116 117 119 118
</DataArray>
<DataArray type="Int32" Name="offsets" format="ascii">
4
8
12
16
20
24
28
32
36
40
44
48
52
56
60
64
68
72
76
80
84
88
92
96
100
104
108
112
116
120
</DataArray>
<DataArray type="UInt8" Name="types" format="ascii">
9
9
9
9
9
9
9
9
9
9
9
9
9
9
9
9
9
9
9
9
9
9
9
9
9
9
9
9
9
9
</DataArray>
</Cells>
<PointData>
<DataArray type="Float32" Name="V1" format="ascii">
1.037252e+02
3.706419e-02
1.038319e+02
1.437569e-01
1.040094e+02
3.114396e-02
1.043153e+02
3.370609e-01
1.046733e+02
1.065128e-01
1.051913e+02
6.245096e-01
1.057306e+02
2.734563e-01
1.064658e+02
1.008674e+00
1.071924e+02
5.336515e-01
1.081535e+02
1.494798e+00
1.090749e+02
8.907184e-01
1.102737e+02
2.089508e+00
1.113994e+02
1.349889e+00
1.128508e+02
2.801368e+00
1.141920e+02
1.918342e+00
1.159150e+02
3.641378e+00
1.174843e+02
2.605781e+00
1.195023e+02
4.623750e+00
1.213129e+02
3.425470e+00
1.236547e+02
5.767232e+00
1.257186e+02
4.395956e+00
1.284199e+02
7.097308e+00
1.307442e+02
5.544192e+00
1.338500e+02
8.650081e+00
1.364295e+02
6.911154e+00
1.399975e+02
1.047920e+01
1.428005e+02
8.562281e+00
1.469068e+02
1.266854e+01
1.498478e+02
1.060735e+01
1.545960e+02
1.535556e+01
1.574830e+02
1.323958e+01
1.630182e+02
1.877477e+01
1.654565e+02
1.681646e+01
1.719772e+02
2.333714e+01
1.732002e+02
2.203804e+01
1.809357e+02
2.977351e+01
1.795348e+02
3.035648e+01
1.885933e+02
3.941506e+01
1.807869e+02
4.594087e+01
1.929646e+02
5.811855e+01
1.818396e+02
6.887828e+01
1.941336e+02
8.117228e+01
1.904773e+02
8.252866e+01
2.012204e+02
9.327173e+01
2.031701e+02
9.192184e+01
2.134543e+02
1.022060e+02
2.176184e+02
9.924816e+01
2.272024e+02
1.088322e+02
2.321098e+02
1.052003e+02
2.406688e+02
1.137593e+02
2.454751e+02
1.101184e+02
2.527384e+02
1.173816e+02
2.569573e+02
1.141517e+02
2.627409e+02
1.199352e+02
2.660862e+02
1.173643e+02
2.702775e+02
1.215556e+02
2.725824e+02
1.197828e+02
2.751179e+02
1.223184e+02
2.762905e+02
1.214166e+02
2.771388e+02
1.222649e+02
</DataArray>
<DataArray type="Float32" Name="V2" format="ascii">
4.572730e-01
5.200000e-01
4.606122e-01
5.232112e-01
4.606122e-01
5.232112e-01
4.705559e-01
5.328241e-01
4.705559e-01
5.328241e-01
4.870577e-01
5.487768e-01
4.870577e-01
5.487768e-01
5.100112e-01
5.709667e-01
5.100112e-01
5.709667e-01
5.392682e-01
5.992502e-01
5.392682e-01
5.992502e-01
5.746389e-01
6.334441e-01
5.746389e-01
6.334441e-01
6.158929e-01
6.733259e-01
6.158929e-01
6.733259e-01
6.627602e-01
7.186348e-01
6.627602e-01
7.186348e-01
7.149319e-01
7.690732e-01
7.149319e-01
7.690732e-01
7.720614e-01
8.243079e-01
7.720614e-01
8.243079e-01
8.337655e-01
8.839727e-01
8.337655e-01
8.839727e-01
8.996250e-01
9.476709e-01
8.996250e-01
9.476709e-01
9.691851e-01
1.014980e+00
9.691851e-01
1.014980e+00
1.041954e+00
1.085457e+00
1.041954e+00
1.085457e+00
1.117400e+00
1.158653e+00
1.117400e+00
1.158653e+00
1.194942e+00
1.234130e+00
1.194942e+00
1.234130e+00
1.273930e+00
1.311494e+00
1.273930e+00
1.311494e+00
1.353607e+00
1.390454e+00
1.353607e+00
1.390454e+00
1.432987e+00
1.470873e+00
1.432987e+00
1.470873e+00
1.510937e+00
1.551386e+00
1.510937e+00
1.551386e+00
1.582898e+00
1.623828e+00
1.582898e+00
1.623828e+00
1.644297e+00
1.687140e+00
1.644297e+00
1.687140e+00
1.696476e+00
1.741594e+00
1.696476e+00
1.741594e+00
1.740157e+00
1.787293e+00
1.740157e+00
1.787293e+00
1.776014e+00
1.824734e+00
1.776014e+00
1.824734e+00
1.804607e+00
1.854484e+00
1.804607e+00
1.854484e+00
1.826389e+00
1.877063e+00
1.826389e+00
1.877063e+00
1.841704e+00
1.892890e+00
1.841704e+00
1.892890e+00
1.850797e+00
1.902266e+00
1.850797e+00
1.902266e+00
1.853812e+00
1.905372e+00
</DataArray>
<DataArray type="Float32" Name="V3" format="ascii">
0.000000e+00
0.000000e+00
5.096920e-02
4.765597e-02
5.096920e-02
4.765597e-02
1.013717e-01
9.476070e-02
1.013717e-01
9.476070e-02
1.506403e-01
1.407649e-01
1.506403e-01
1.407649e-01
1.982155e-01
1.851251e-01
1.982155e-01
1.851251e-01
2.435464e-01
2.273065e-01
2.435464e-01
2.273065e-01
2.860937e-01
2.667852e-01
2.860937e-01
2.667852e-01
3.253323e-01
3.030513e-01
3.253323e-01
3.030513e-01
3.607541e-01
3.356116e-01
3.607541e-01
3.356116e-01
3.918708e-01
3.639926e-01
3.918708e-01
3.639926e-01
4.182160e-01
3.877432e-01
4.182160e-01
3.877432e-01
4.393481e-01
4.064378e-01
4.393481e-01
4.064378e-01
4.548517e-01
4.196802e-01
4.548517e-01
4.196802e-01
4.643395e-01
4.271073e-01
4.643395e-01
4.271073e-01
4.674533e-01
4.283944e-01
4.674533e-01
4.283944e-01
4.638642e-01
4.232621e-01
4.638642e-01
4.232621e-01
4.532702e-01
4.114863e-01
4.532702e-01
4.114863e-01
4.353901e-01
3.929118e-01
4.353901e-01
3.929118e-01
4.099435e-01
3.674688e-01
4.099435e-01
3.674688e-01
3.765962e-01
3.351670e-01
3.765962e-01
3.351670e-01
3.351893e-01
2.952488e-01
3.351893e-01
2.952488e-01
2.930483e-01
2.556842e-01
2.930483e-01
2.556842e-01
2.556722e-01
2.219869e-01
2.556722e-01
2.219869e-01
2.207924e-01
1.915271e-01
2.207924e-01
1.915271e-01
1.875805e-01
1.629769e-01
1.875805e-01
1.629769e-01
1.554226e-01
1.354210e-01
1.554226e-01
1.354210e-01
1.238989e-01
1.082963e-01
1.238989e-01
1.082963e-01
9.273295e-02
8.128980e-02
9.273295e-02
8.128980e-02
6.175312e-02
5.425528e-02
6.175312e-02
5.425528e-02
3.086021e-02
2.715187e-02
3.086021e-02
2.715187e-02
0.000000e+00
0.000000e+00
</DataArray>
<DataArray type="Float32" Name="V4" format="ascii">
8.500000e-01
1.000000e+00
8.500000e-01
1.000000e+00
8.500000e-01
1.000000e+00
8.500000e-01
1.000000e+00
8.500000e-01
1.000000e+00
8.500000e-01
1.000000e+00
8.500000e-01
1.000000e+00
8.500000e-01
1.000000e+00
8.500000e-01
1.000000e+00
8.500000e-01
1.000000e+00
8.500000e-01
1.000000e+00
8.500000e-01
1.000000e+00
8.500000e-01
1.000000e+00
8.500000e-01
1.000000e+00
8.500000e-01
1.000000e+00
8.500000e-01
1.000000e+00
8.500000e-01
1.000000e+00
8.500000e-01
1.000000e+00
8.500000e-01
1.000000e+00
8.500000e-01
1.000000e+00
8.500000e-01
1.000000e+00
8.500000e-01
1.000000e+00
8.500000e-01
1.000000e+00
8.500000e-01
1.000000e+00
8.500000e-01
1.000000e+00
8.500000e-01
1.000000e+00
8.500000e-01
1.000000e+00
8.500000e-01
1.000000e+00
8.500000e-01
1.000000e+00
8.500000e-01
1.000000e+00
8.500000e-01
1.000000e+00
8.500000e-01
1.000000e+00
8.500000e-01
1.000000e+00
8.500000e-01
1.000000e+00
8.500000e-01
1.000000e+00
8.500000e-01
1.000000e+00
8.500000e-01
1.000000e+00
8.500000e-01
1.000000e+00
8.500000e-01
1.000000e+00
8.500000e-01
1.000000e+00
8.500000e-01
1.000000e+00
8.500000e-01
1.000000e+00
8.500000e-01
1.000000e+00
8.500000e-01
1.000000e+00
8.500000e-01
1.000000e+00
8.500000e-01
1.000000e+00
8.500000e-01
1.000000e+00
8.500000e-01
1.000000e+00
8.500000e-01
1.000000e+00
8.500000e-01
1.000000e+00
8.500000e-01
1.000000e+00
8.500000e-01
1.000000e+00
8.500000e-01
1.000000e+00
8.500000e-01
1.000000e+00
8.500000e-01
1.000000e+00
8.500000e-01
1.000000e+00
8.500000e-01
1.000000e+00
8.500000e-01
1.000000e+00
8.500000e-01
1.000000e+00
8.500000e-01
1.000000e+00
</DataArray>
<DataArray type="Float32" Name="V5" format="ascii">
0.000000e+00
0.000000e+00
5.235988e-02
5.235988e-02
5.235988e-02
5.235988e-02
1.047198e-01
1.047198e-01
1.047198e-01
1.047198e-01
1.570796e-01
1.570796e-01
1.570796e-01
1.570796e-01
2.094395e-01
2.094395e-01
2.094395e-01
2.094395e-01
2.617994e-01
2.617994e-01
2.617994e-01
2.617994e-01
3.141593e-01
3.141593e-01
3.141593e-01
3.141593e-01
3.665191e-01
3.665191e-01
3.665191e-01
3.665191e-01
4.188790e-01
4.188790e-01
4.188790e-01
4.188790e-01
4.712389e-01
4.712389e-01
4.712389e-01
4.712389e-01
5.235988e-01
5.235988e-01
5.235988e-01
5.235988e-01
5.759587e-01
5.759587e-01
5.759587e-01
5.759587e-01
6.283185e-01
6.283185e-01
6.283185e-01
6.283185e-01
6.806784e-01
6.806784e-01
6.806784e-01
6.806784e-01
7.330383e-01
7.330383e-01
7.330383e-01
7.330383e-01
7.853982e-01
7.853982e-01
7.853982e-01
7.853982e-01
8.377580e-01
8.377580e-01
8.377580e-01
8.377580e-01
8.901179e-01
8.901179e-01
8.901179e-01
8.901179e-01
9.424778e-01
9.424778e-01
9.424778e-01
9.424778e-01
9.948377e-01
9.948377e-01
9.948377e-01
9.948377e-01
1.047198e+00
1.047198e+00
1.047198e+00
1.047198e+00
1.099557e+00
1.099557e+00
1.099557e+00
1.099557e+00
1.151917e+00
1.151917e+00
1.151917e+00
1.151917e+00
1.204277e+00
1.204277e+00
1.204277e+00
1.204277e+00
1.256637e+00
1.256637e+00
1.256637e+00
1.256637e+00
1.308997e+00
1.308997e+00
1.308997e+00
1.308997e+00
1.361357e+00
1.361357e+00
1.361357e+00
1.361357e+00
1.413717e+00
1.413717e+00
1.413717e+00
1.413717e+00
1.466077e+00
1.466077e+00
1.466077e+00
1.466077e+00
1.518436e+00
1.518436e+00
1.518436e+00
1.518436e+00
1.570796e+00
1.570796e+00
</DataArray>
</PointData>
</Piece></UnstructuredGrid>
</VTKFile>
