<?xml version="1.0"?>
<VTKFile type="UnstructuredGrid" version="0.1" byte_order="LittleEndian" compressor="vtkZLibDataCompressor">
<UnstructuredGrid>
<Piece NumberOfPoints="120" NumberOfCells="30">
<Points>
<DataArray type="Float32" NumberOfComponents="3" format="ascii">
0.000000e+00 6.076363e-01 0.000000e+00
0.000000e+00 7.000000e-01 0.000000e+00
6.184515e-02 6.076857e-01 0.000000e+00
6.175523e-02 7.000000e-01 0.000000e+00
6.184515e-02 6.076857e-01 0.000000e+00
6.175523e-02 7.000000e-01 0.000000e+00
1.236874e-01 6.078016e-01 0.000000e+00
1.235069e-01 7.000000e-01 0.000000e+00
1.236874e-01 6.078016e-01 0.000000e+00
1.235069e-01 7.000000e-01 0.000000e+00
1.855209e-01 6.079947e-01 0.000000e+00
1.852527e-01 7.000000e-01 0.000000e+00
1.855209e-01 6.079947e-01 0.000000e+00
1.852527e-01 7.000000e-01 0.000000e+00
2.473410e-01 6.082644e-01 0.000000e+00
2.469897e-01 7.000000e-01 0.000000e+00
2.473410e-01 6.082644e-01 0.000000e+00
2.469897e-01 7.000000e-01 0.000000e+00
3.091419e-01 6.086101e-01 0.000000e+00
3.087162e-01 7.000000e-01 0.000000e+00
3.091419e-01 6.086101e-01 0.000000e+00
3.087162e-01 7.000000e-01 0.000000e+00
3.709159e-01 6.090315e-01 0.000000e+00
3.704327e-01 7.000000e-01 0.000000e+00
3.709159e-01 6.090315e-01 0.000000e+00
3.704327e-01 7.000000e-01 0.000000e+00
4.326522e-01 6.095289e-01 0.000000e+00
4.321447e-01 7.000000e-01 0.000000e+00
4.326522e-01 6.095289e-01 0.000000e+00
4.321447e-01 7.000000e-01 0.000000e+00
4.943340e-01 6.101042e-01 0.000000e+00
4.938669e-01 7.000000e-01 0.000000e+00
4.943340e-01 6.101042e-01 0.000000e+00
4.938669e-01 7.000000e-01 0.000000e+00
5.559337e-01 6.107613e-01 0.000000e+00
5.556332e-01 7.000000e-01 0.000000e+00
5.559337e-01 6.107613e-01 0.000000e+00
5.556332e-01 7.000000e-01 0.000000e+00
6.174018e-01 6.115073e-01 0.000000e+00
6.175125e-01 7.000000e-01 0.000000e+00
6.174018e-01 6.115073e-01 0.000000e+00
6.175125e-01 7.000000e-01 0.000000e+00
6.786470e-01 6.123498e-01 0.000000e+00
6.796335e-01 7.000000e-01 0.000000e+00
6.786470e-01 6.123498e-01 0.000000e+00
6.796335e-01 7.000000e-01 0.000000e+00
7.394943e-01 6.132833e-01 0.000000e+00
7.422151e-01 7.000000e-01 0.000000e+00
7.394943e-01 6.132833e-01 0.000000e+00
7.422151e-01 7.000000e-01 0.000000e+00
7.996035e-01 6.142276e-01 0.000000e+00
8.055631e-01 7.000000e-01 0.000000e+00
7.996035e-01 6.142276e-01 0.000000e+00
8.055631e-01 7.000000e-01 0.000000e+00
8.583700e-01 6.148004e-01 0.000000e+00
8.698310e-01 7.000000e-01 0.000000e+00
8.583700e-01 6.148004e-01 0.000000e+00
8.698310e-01 7.000000e-01 0.000000e+00
9.158169e-01 6.139990e-01 0.000000e+00
9.333320e-01 6.988838e-01 0.000000e+00
9.158169e-01 6.139990e-01 0.000000e+00
9.333320e-01 6.988838e-01 0.000000e+00
9.714559e-01 6.059152e-01 0.000000e+00
9.954289e-01 6.880561e-01 0.000000e+00
9.714559e-01 6.059152e-01 0.000000e+00
9.954289e-01 6.880561e-01 0.000000e+00
1.024430e+00 5.904728e-01 0.000000e+00
1.056240e+00 6.686876e-01 0.000000e+00
1.024430e+00 5.904728e-01 0.000000e+00
1.056240e+00 6.686876e-01 0.000000e+00
1.074602e+00 5.680740e-01 0.000000e+00
1.114332e+00 6.414930e-01 0.000000e+00
1.074602e+00 5.680740e-01 0.000000e+00
1.114332e+00 6.414930e-01 0.000000e+00
1.121642e+00 5.395317e-01 0.000000e+00
1.168709e+00 6.074680e-01 0.000000e+00
1.121642e+00 5.395317e-01 0.000000e+00
1.168709e+00 6.074680e-01 0.000000e+00
1.165236e+00 5.055923e-01 0.000000e+00
1.218782e+00 5.675934e-01 0.000000e+00
1.165236e+00 5.055923e-01 0.000000e+00
1.218782e+00 5.675934e-01 0.000000e+00
1.205132e+00 4.669665e-01 0.000000e+00
1.264243e+00 5.227764e-01 0.000000e+00
1.205132e+00 4.669665e-01 0.000000e+00
1.264243e+00 5.227764e-01 0.000000e+00
1.241139e+00 4.243082e-01 0.000000e+00
1.304943e+00 4.738114e-01 0.000000e+00
1.241139e+00 4.243082e-01 0.000000e+00
1.304943e+00 4.738114e-01 0.000000e+00
1.273116e+00 3.782148e-01 0.000000e+00
1.340823e+00 4.213848e-01 0.000000e+00
1.273116e+00 3.782148e-01 0.000000e+00
1.340823e+00 4.213848e-01 0.000000e+00
1.300963e+00 3.292296e-01 0.000000e+00
1.371871e+00 3.660909e-01 0.000000e+00
1.300963e+00 3.292296e-01 0.000000e+00
1.371871e+00 3.660909e-01 0.000000e+00
1.324611e+00 2.778486e-01 0.000000e+00
1.398096e+00 3.084499e-01 0.000000e+00
1.324611e+00 2.778486e-01 0.000000e+00
1.398096e+00 3.084499e-01 0.000000e+00
1.344010e+00 2.245278e-01 0.000000e+00
1.419518e+00 2.489253e-01 0.000000e+00
1.344010e+00 2.245278e-01 0.000000e+00
1.419518e+00 2.489253e-01 0.000000e+00
1.359127e+00 1.696914e-01 0.000000e+00
1.436156e+00 1.879378e-01 0.000000e+00
1.359127e+00 1.696914e-01 0.000000e+00
1.436156e+00 1.879378e-01 0.000000e+00
1.369938e+00 1.137388e-01 0.000000e+00
1.448027e+00 1.258776e-01 0.000000e+00
1.369938e+00 1.137388e-01 0.000000e+00
1.448027e+00 1.258776e-01 0.000000e+00
1.376431e+00 5.705165e-02 0.000000e+00
1.455145e+00 6.311322e-02 0.000000e+00
1.376431e+00 5.705165e-02 0.000000e+00
1.455145e+00 6.311322e-02 0.000000e+00
1.378596e+00 6.750420e-12 0.000000e+00
1.457517e+00 7.136860e-12 0.000000e+00
</DataArray>
</Points>
<Cells>
<DataArray type="Int32" Name="connectivity" format="ascii">
0 1 3 2
4 5 7 6
8 9 11 10
12 13 15 14
16 17 19 18
20 21 23 22
24 25 27 26
28 29 31 30
32 33 35 34
36 37 39 38
40 41 43 42
44 45 47 46
48 49 51 50
52 53 55 54
56 57 59 58
60 61 63 62
64 65 67 66
68 69 71 70
72 73 75 74
76 77 79 78
80 81 83 82
84 85 87 86
88 89 91 90
92 93 95 94
96 97 99 98
100 101 103 102
104 105 107 106
108 109 111 110
112 113 115 114
116 117 119 118
</DataArray>
<DataArray type="Int32" Name="offsets" format="ascii">
4
8
12
16
20
24
28
32
36
40
44
48
52
56
60
64
68
72
76
80
84
88
92
96
100
104
108
112
116
120
</DataArray>
<DataArray type="UInt8" Name="types" format="ascii">
9
9
9
9
9
9
9
9
9
9
9
9
9
9
9
9
9
9
9
9
9
9
9
9
9
9
9
9
9
9
</DataArray>
</Cells>
<PointData>
<DataArray type="Float32" Name="V1" format="ascii">
2.138744e+01
-8.082336e-01
2.141517e+01
-7.805000e-01
2.145775e+01
-8.085951e-01
2.153312e+01
-7.332294e-01
2.162028e+01
-7.905363e-01
2.174802e+01
-6.628000e-01
2.187873e+01
-7.500226e-01
2.206019e+01
-5.685632e-01
2.223520e+01
-6.861609e-01
2.247244e+01
-4.489224e-01
2.269193e+01
-5.970811e-01
2.298785e+01
-3.011604e-01
2.325027e+01
-4.791396e-01
2.360884e+01
-1.205780e-01
2.390851e+01
-3.252683e-01
2.433518e+01
1.014019e-01
2.465739e+01
-1.215395e-01
2.516007e+01
3.811425e-01
2.547114e+01
1.599156e-01
2.606207e+01
7.508455e-01
2.629032e+01
5.755512e-01
2.698977e+01
1.275002e+00
2.699022e+01
1.240808e+00
2.783362e+01
2.084209e+00
2.732729e+01
2.392803e+00
2.838502e+01
3.450536e+00
2.685076e+01
4.537213e+00
2.832421e+01
6.010666e+00
2.490879e+01
9.076808e+00
2.714446e+01
1.131248e+01
2.415554e+01
1.371898e+01
2.561713e+01
1.518056e+01
2.453966e+01
1.588328e+01
2.579491e+01
1.713853e+01
2.560828e+01
1.729391e+01
2.682900e+01
1.851463e+01
2.709192e+01
1.831014e+01
2.825773e+01
1.947595e+01
2.873812e+01
1.908637e+01
2.981923e+01
2.016748e+01
3.039167e+01
1.970170e+01
3.136992e+01
2.067995e+01
3.196012e+01
2.020281e+01
3.282709e+01
2.106978e+01
3.339163e+01
2.061785e+01
3.414536e+01
2.137158e+01
3.465921e+01
2.096444e+01
3.530141e+01
2.160665e+01
3.575076e+01
2.125400e+01
3.628491e+01
2.178815e+01
3.666266e+01
2.149411e+01
3.709280e+01
2.192426e+01
3.739577e+01
2.169001e+01
3.772579e+01
2.202003e+01
3.795289e+01
2.184534e+01
3.818611e+01
2.207856e+01
3.833727e+01
2.196271e+01
3.847617e+01
2.210162e+01
3.855164e+01
2.204390e+01
3.859777e+01
2.209003e+01
</DataArray>
<DataArray type="Float32" Name="V2" format="ascii">
6.076363e-01
7.000000e-01
6.100896e-01
7.022727e-01
6.100896e-01
7.022727e-01
6.174008e-01
7.090753e-01
6.174008e-01
7.090753e-01
6.295312e-01
7.203618e-01
6.295312e-01
7.203618e-01
6.463975e-01
7.360554e-01
6.463975e-01
7.360554e-01
6.678840e-01
7.560497e-01
6.678840e-01
7.560497e-01
6.938427e-01
7.802096e-01
6.938427e-01
7.802096e-01
7.240929e-01
8.083731e-01
7.240929e-01
8.083731e-01
7.584217e-01
8.403556e-01
7.584217e-01
8.403556e-01
7.965809e-01
8.759568e-01
7.965809e-01
8.759568e-01
8.382817e-01
9.149740e-01
8.382817e-01
9.149740e-01
8.831774e-01
9.572243e-01
8.831774e-01
9.572243e-01
9.308205e-01
1.002575e+00
9.308205e-01
1.002575e+00
9.805513e-01
1.050959e+00
9.805513e-01
1.050959e+00
1.031247e+00
1.102232e+00
1.031247e+00
1.102232e+00
1.081743e+00
1.154151e+00
1.081743e+00
1.154151e+00
1.127369e+00
1.200147e+00
1.127369e+00
1.200147e+00
1.167728e+00
1.241671e+00
1.167728e+00
1.241671e+00
1.203277e+00
1.278574e+00
1.203277e+00
1.278574e+00
1.234538e+00
1.311013e+00
1.234538e+00
1.311013e+00
1.261920e+00
1.339293e+00
1.261920e+00
1.339293e+00
1.285779e+00
1.363784e+00
1.285779e+00
1.363784e+00
1.306418e+00
1.384841e+00
1.306418e+00
1.384841e+00
1.324096e+00
1.402777e+00
1.324096e+00
1.402777e+00
1.339027e+00
1.417855e+00
1.339027e+00
1.417855e+00
1.351388e+00
1.430290e+00
1.351388e+00
1.430290e+00
1.361322e+00
1.440253e+00
1.361322e+00
1.440253e+00
1.368939e+00
1.447875e+00
1.368939e+00
1.447875e+00
1.374323e+00
1.453253e+00
1.374323e+00
1.453253e+00
1.377530e+00
1.456454e+00
1.377530e+00
1.456454e+00
1.378596e+00
1.457517e+00
</DataArray>
<DataArray type="Float32" Name="V3" format="ascii">
0.000000e+00
0.000000e+00
2.995658e-02
2.503543e-02
2.995658e-02
2.503543e-02
5.947724e-02
4.966043e-02
5.947724e-02
4.966043e-02
8.812550e-02
7.346783e-02
8.812550e-02
7.346783e-02
1.154708e-01
9.605420e-02
1.154708e-01
9.605420e-02
1.410883e-01
1.170236e-01
1.410883e-01
1.170236e-01
1.645609e-01
1.359906e-01
1.645609e-01
1.359906e-01
1.854800e-01
1.525842e-01
1.854800e-01
1.525842e-01
2.034449e-01
1.664542e-01
2.034449e-01
1.664542e-01
2.180607e-01
1.772795e-01
2.180607e-01
1.772795e-01
2.289320e-01
1.847815e-01
2.289320e-01
1.847815e-01
2.356517e-01
1.887413e-01
2.356517e-01
1.887413e-01
2.377846e-01
1.890150e-01
2.377846e-01
1.890150e-01
2.348627e-01
1.855158e-01
2.348627e-01
1.855158e-01
2.265114e-01
1.780190e-01
2.265114e-01
1.780190e-01
2.134175e-01
1.657799e-01
2.134175e-01
1.657799e-01
1.997481e-01
1.547467e-01
1.997481e-01
1.547467e-01
1.858111e-01
1.450453e-01
1.858111e-01
1.450453e-01
1.720539e-01
1.360092e-01
1.720539e-01
1.360092e-01
1.584009e-01
1.270591e-01
1.584009e-01
1.270591e-01
1.447623e-01
1.178409e-01
1.447623e-01
1.178409e-01
1.310483e-01
1.081573e-01
1.310483e-01
1.081573e-01
1.171917e-01
9.791994e-02
1.171917e-01
9.791994e-02
1.031499e-01
8.711132e-02
1.031499e-01
8.711132e-02
8.890377e-02
7.575817e-02
8.890377e-02
7.575817e-02
7.445342e-02
6.391417e-02
7.445342e-02
6.391417e-02
5.981402e-02
5.164875e-02
5.981402e-02
5.164875e-02
4.501199e-02
3.904031e-02
4.501199e-02
3.904031e-02
3.008179e-02
2.617206e-02
3.008179e-02
2.617206e-02
1.506336e-02
1.312967e-02
1.506336e-02
1.312967e-02
0.000000e+00
0.000000e+00
</DataArray>
<DataArray type="Float32" Name="V4" format="ascii">
8.500000e-01
1.000000e+00
8.500000e-01
1.000000e+00
8.500000e-01
1.000000e+00
8.500000e-01
1.000000e+00
8.500000e-01
1.000000e+00
8.500000e-01
1.000000e+00
8.500000e-01
1.000000e+00
8.500000e-01
1.000000e+00
8.500000e-01
1.000000e+00
8.500000e-01
1.000000e+00
8.500000e-01
1.000000e+00
8.500000e-01
1.000000e+00
8.500000e-01
1.000000e+00
8.500000e-01
1.000000e+00
8.500000e-01
1.000000e+00
8.500000e-01
1.000000e+00
8.500000e-01
1.000000e+00
8.500000e-01
1.000000e+00
8.500000e-01
1.000000e+00
8.500000e-01
1.000000e+00
8.500000e-01
1.000000e+00
8.500000e-01
1.000000e+00
8.500000e-01
1.000000e+00
8.500000e-01
1.000000e+00
8.500000e-01
1.000000e+00
8.500000e-01
1.000000e+00
8.500000e-01
1.000000e+00
8.500000e-01
1.000000e+00
8.500000e-01
1.000000e+00
8.500000e-01
1.000000e+00
8.500000e-01
1.000000e+00
8.500000e-01
1.000000e+00
8.500000e-01
1.000000e+00
8.500000e-01
1.000000e+00
8.500000e-01
1.000000e+00
8.500000e-01
1.000000e+00
8.500000e-01
1.000000e+00
8.500000e-01
1.000000e+00
8.500000e-01
1.000000e+00
8.500000e-01
1.000000e+00
8.500000e-01
1.000000e+00
8.500000e-01
1.000000e+00
8.500000e-01
1.000000e+00
8.500000e-01
1.000000e+00
8.500000e-01
1.000000e+00
8.500000e-01
1.000000e+00
8.500000e-01
1.000000e+00
8.500000e-01
1.000000e+00
8.500000e-01
1.000000e+00
8.500000e-01
1.000000e+00
8.500000e-01
1.000000e+00
8.500000e-01
1.000000e+00
8.500000e-01
1.000000e+00
8.500000e-01
1.000000e+00
8.500000e-01
1.000000e+00
8.500000e-01
1.000000e+00
8.500000e-01
1.000000e+00
8.500000e-01
1.000000e+00
8.500000e-01
1.000000e+00
8.500000e-01
1.000000e+00
</DataArray>
<DataArray type="Float32" Name="V5" format="ascii">
0.000000e+00
0.000000e+00
5.235988e-02
5.235988e-02
5.235988e-02
5.235988e-02
1.047198e-01
1.047198e-01
1.047198e-01
1.047198e-01
1.570796e-01
1.570796e-01
1.570796e-01
1.570796e-01
2.094395e-01
2.094395e-01
2.094395e-01
2.094395e-01
2.617994e-01
2.617994e-01
2.617994e-01
2.617994e-01
3.141593e-01
3.141593e-01
3.141593e-01
3.141593e-01
3.665191e-01
3.665191e-01
3.665191e-01
3.665191e-01
4.188790e-01
4.188790e-01
4.188790e-01
4.188790e-01
4.712389e-01
4.712389e-01
4.712389e-01
4.712389e-01
5.235988e-01
5.235988e-01
5.235988e-01
5.235988e-01
5.759587e-01
5.759587e-01
5.759587e-01
5.759587e-01
6.283185e-01
6.283185e-01
6.283185e-01
6.283185e-01
6.806784e-01
6.806784e-01
6.806784e-01
6.806784e-01
7.330383e-01
7.330383e-01
7.330383e-01
7.330383e-01
7.853982e-01
7.853982e-01
7.853982e-01
7.853982e-01
8.377580e-01
8.377580e-01
8.377580e-01
8.377580e-01
8.901179e-01
8.901179e-01
8.901179e-01
8.901179e-01
9.424778e-01
9.424778e-01
9.424778e-01
9.424778e-01
9.948377e-01
9.948377e-01
9.948377e-01
9.948377e-01
1.047198e+00
1.047198e+00
1.047198e+00
1.047198e+00
1.099557e+00
1.099557e+00
1.099557e+00
1.099557e+00
1.151917e+00
1.151917e+00
1.151917e+00
1.151917e+00
1.204277e+00
1.204277e+00
1.204277e+00
1.204277e+00
1.256637e+00
1.256637e+00
1.256637e+00
1.256637e+00
1.308997e+00
1.308997e+00
1.308997e+00
1.308997e+00
1.361357e+00
1.361357e+00
1.361357e+00
1.361357e+00
1.413717e+00
1.413717e+00
1.413717e+00
1.413717e+00
1.466077e+00
1.466077e+00
1.466077e+00
1.466077e+00
1.518436e+00
1.518436e+00
1.518436e+00
1.518436e+00
1.570796e+00
1.570796e+00
</DataArray>
</PointData>
</Piece></UnstructuredGrid>
</VTKFile>
