<?xml version="1.0"?>
<VTKFile type="UnstructuredGrid" version="0.1" byte_order="LittleEndian" compressor="vtkZLibDataCompressor">
<UnstructuredGrid>
<Piece NumberOfPoints="120" NumberOfCells="30">
<Points>
<DataArray type="Float32" NumberOfComponents="3" format="ascii">
0.000000e+00 4.811645e-01 0.000000e+00
0.000000e+00 5.500000e-01 0.000000e+00
7.160533e-02 4.812059e-01 0.000000e+00
7.156188e-02 5.500000e-01 0.000000e+00
7.160533e-02 4.812059e-01 0.000000e+00
7.156188e-02 5.500000e-01 0.000000e+00
1.432025e-01 4.812820e-01 0.000000e+00
1.431146e-01 5.500000e-01 0.000000e+00
1.432025e-01 4.812820e-01 0.000000e+00
1.431146e-01 5.500000e-01 0.000000e+00
2.147800e-01 4.814086e-01 0.000000e+00
2.146486e-01 5.500000e-01 0.000000e+00
2.147800e-01 4.814086e-01 0.000000e+00
2.146486e-01 5.500000e-01 0.000000e+00
2.863279e-01 4.815855e-01 0.000000e+00
2.861541e-01 5.500000e-01 0.000000e+00
2.863279e-01 4.815855e-01 0.000000e+00
2.861541e-01 5.500000e-01 0.000000e+00
3.578359e-01 4.818119e-01 0.000000e+00
3.576213e-01 5.500000e-01 0.000000e+00
3.578359e-01 4.818119e-01 0.000000e+00
3.576213e-01 5.500000e-01 0.000000e+00
4.292927e-01 4.820869e-01 0.000000e+00
4.290398e-01 5.500000e-01 0.000000e+00
4.292927e-01 4.820869e-01 0.000000e+00
4.290398e-01 5.500000e-01 0.000000e+00
5.006866e-01 4.824097e-01 0.000000e+00
5.003994e-01 5.500000e-01 0.000000e+00
5.006866e-01 4.824097e-01 0.000000e+00
5.003994e-01 5.500000e-01 0.000000e+00
5.720045e-01 4.827791e-01 0.000000e+00
5.716894e-01 5.500000e-01 0.000000e+00
5.720045e-01 4.827791e-01 0.000000e+00
5.716894e-01 5.500000e-01 0.000000e+00
6.432320e-01 4.831938e-01 0.000000e+00
6.428996e-01 5.500000e-01 0.000000e+00
6.432320e-01 4.831938e-01 0.000000e+00
6.428996e-01 5.500000e-01 0.000000e+00
7.143521e-01 4.836526e-01 0.000000e+00
7.140210e-01 5.500000e-01 0.000000e+00
7.143521e-01 4.836526e-01 0.000000e+00
7.140210e-01 5.500000e-01 0.000000e+00
7.853451e-01 4.841540e-01 0.000000e+00
7.850473e-01 5.500000e-01 0.000000e+00
7.853451e-01 4.841540e-01 0.000000e+00
7.850473e-01 5.500000e-01 0.000000e+00
8.561857e-01 4.846964e-01 0.000000e+00
8.559782e-01 5.500000e-01 0.000000e+00
8.561857e-01 4.846964e-01 0.000000e+00
8.559782e-01 5.500000e-01 0.000000e+00
9.268402e-01 4.852783e-01 0.000000e+00
9.268246e-01 5.500000e-01 0.000000e+00
9.268402e-01 4.852783e-01 0.000000e+00
9.268246e-01 5.500000e-01 0.000000e+00
9.972603e-01 4.858975e-01 0.000000e+00
9.976194e-01 5.500000e-01 0.000000e+00
9.972603e-01 4.858975e-01 0.000000e+00
9.976194e-01 5.500000e-01 0.000000e+00
1.067371e+00 4.865510e-01 0.000000e+00
1.068436e+00 5.500000e-01 0.000000e+00
1.067371e+00 4.865510e-01 0.000000e+00
1.068436e+00 5.500000e-01 0.000000e+00
1.137047e+00 4.872337e-01 0.000000e+00
1.139419e+00 5.500000e-01 0.000000e+00
1.137047e+00 4.872337e-01 0.000000e+00
1.139419e+00 5.500000e-01 0.000000e+00
1.206062e+00 4.879372e-01 0.000000e+00
1.210835e+00 5.500000e-01 0.000000e+00
1.206062e+00 4.879372e-01 0.000000e+00
1.210835e+00 5.500000e-01 0.000000e+00
1.273958e+00 4.886244e-01 0.000000e+00
1.283088e+00 5.500000e-01 0.000000e+00
1.273958e+00 4.886244e-01 0.000000e+00
1.283088e+00 5.500000e-01 0.000000e+00
1.340204e+00 4.891512e-01 0.000000e+00
1.355410e+00 5.500000e-01 0.000000e+00
1.340204e+00 4.891512e-01 0.000000e+00
1.355410e+00 5.500000e-01 0.000000e+00
1.404756e+00 4.831066e-01 0.000000e+00
1.424721e+00 5.413488e-01 0.000000e+00
1.404756e+00 4.831066e-01 0.000000e+00
1.424721e+00 5.413488e-01 0.000000e+00
1.465344e+00 4.638427e-01 0.000000e+00
1.491603e+00 5.184393e-01 0.000000e+00
1.465344e+00 4.638427e-01 0.000000e+00
1.491603e+00 5.184393e-01 0.000000e+00
1.520975e+00 4.344381e-01 0.000000e+00
1.553908e+00 4.843462e-01 0.000000e+00
1.520975e+00 4.344381e-01 0.000000e+00
1.553908e+00 4.843462e-01 0.000000e+00
1.570909e+00 3.964680e-01 0.000000e+00
1.609968e+00 4.408639e-01 0.000000e+00
1.570909e+00 3.964680e-01 0.000000e+00
1.609968e+00 4.408639e-01 0.000000e+00
1.614675e+00 3.514759e-01 0.000000e+00
1.658943e+00 3.898290e-01 0.000000e+00
1.614675e+00 3.514759e-01 0.000000e+00
1.658943e+00 3.898290e-01 0.000000e+00
1.651967e+00 3.008138e-01 0.000000e+00
1.700450e+00 3.328452e-01 0.000000e+00
1.651967e+00 3.008138e-01 0.000000e+00
1.700450e+00 3.328452e-01 0.000000e+00
1.682603e+00 2.456737e-01 0.000000e+00
1.734356e+00 2.712737e-01 0.000000e+00
1.682603e+00 2.456737e-01 0.000000e+00
1.734356e+00 2.712737e-01 0.000000e+00
1.706485e+00 1.871116e-01 0.000000e+00
1.760653e+00 2.062665e-01 0.000000e+00
1.706485e+00 1.871116e-01 0.000000e+00
1.760653e+00 2.062665e-01 0.000000e+00
1.723562e+00 1.260752e-01 0.000000e+00
1.779383e+00 1.388137e-01 0.000000e+00
1.723562e+00 1.260752e-01 0.000000e+00
1.779383e+00 1.388137e-01 0.000000e+00
1.733814e+00 6.343272e-02 0.000000e+00
1.790596e+00 6.979065e-02 0.000000e+00
1.733814e+00 6.343272e-02 0.000000e+00
1.790596e+00 6.979065e-02 0.000000e+00
1.737231e+00 8.506510e-12 0.000000e+00
1.794329e+00 8.786090e-12 0.000000e+00
</DataArray>
</Points>
<Cells>
<DataArray type="Int32" Name="connectivity" format="ascii">
0 1 3 2
4 5 7 6
8 9 11 10
12 13 15 14
16 17 19 18
20 21 23 22
24 25 27 26
28 29 31 30
32 33 35 34
36 37 39 38
40 41 43 42
44 45 47 46
48 49 51 50
52 53 55 54
56 57 59 58
60 61 63 62
64 65 67 66
68 69 71 70
72 73 75 74
76 77 79 78
80 81 83 82
84 85 87 86
88 89 91 90
92 93 95 94
96 97 99 98
100 101 103 102
104 105 107 106
108 109 111 110
112 113 115 114
116 117 119 118
</DataArray>
<DataArray type="Int32" Name="offsets" format="ascii">
4
8
12
16
20
24
28
32
36
40
44
48
52
56
60
64
68
72
76
80
84
88
92
96
100
104
108
112
116
120
</DataArray>
<DataArray type="UInt8" Name="types" format="ascii">
9
9
9
9
9
9
9
9
9
9
9
9
9
9
9
9
9
9
9
9
9
9
9
9
9
9
9
9
9
9
</DataArray>
</Cells>
<PointData>
<DataArray type="Float32" Name="V1" format="ascii">
7.089793e+01
-1.119181e+00
7.097305e+01
-1.044055e+00
7.110051e+01
-1.124476e+00
7.131465e+01
-9.103364e-01
7.157204e+01
-1.075508e+00
7.193507e+01
-7.124851e-01
7.232243e+01
-9.642242e-01
7.283804e+01
-4.486203e-01
7.335951e+01
-7.893816e-01
7.403380e+01
-1.150975e-01
7.469465e+01
-5.483740e-01
7.553588e+01
2.928527e-01
7.634248e+01
-2.373186e-01
7.736132e+01
7.815273e-01
7.832084e+01
1.493045e-01
7.953078e+01
1.359246e+00
8.065060e+01
6.193374e-01
8.206847e+01
2.037208e+00
8.335487e+01
1.184128e+00
8.500173e+01
2.830983e+00
8.645726e+01
1.860701e+00
8.835969e+01
3.763138e+00
8.997792e+01
2.675718e+00
9.217022e+01
4.868014e+00
9.392568e+01
3.672880e+00
9.645331e+01
6.200513e+00
9.828197e+01
4.927105e+00
1.012074e+02
7.852537e+00
1.029696e+02
6.572260e+00
1.063810e+02
9.983715e+00
1.077923e+02
8.857856e+00
1.118132e+02
1.287884e+01
1.123212e+02
1.227080e+01
1.171057e+02
1.705529e+01
1.156788e+02
1.780987e+01
1.213669e+02
2.349791e+01
1.155146e+02
2.831343e+01
1.231484e+02
3.594719e+01
1.141776e+02
4.478299e+01
1.222962e+02
5.290150e+01
1.185579e+02
5.447505e+01
1.252185e+02
6.113565e+01
1.257721e+02
6.073788e+01
1.321945e+02
6.716032e+01
1.344522e+02
6.551481e+01
1.405134e+02
7.157602e+01
1.434745e+02
6.933344e+01
1.489911e+02
7.485005e+01
1.520700e+02
7.247357e+01
1.568882e+02
7.729174e+01
1.597484e+02
7.507075e+01
1.637670e+02
7.908944e+01
1.662087e+02
7.719379e+01
1.693691e+02
8.035416e+01
1.712741e+02
7.887902e+01
1.735450e+02
8.114995e+01
1.748449e+02
8.014619e+01
1.762114e+02
8.151278e+01
1.768694e+02
8.100573e+01
1.773255e+02
8.146180e+01
</DataArray>
<DataArray type="Float32" Name="V2" format="ascii">
4.811645e-01
5.500000e-01
4.842939e-01
5.529915e-01
4.842939e-01
5.529915e-01
4.936142e-01
5.619466e-01
4.936142e-01
5.619466e-01
5.090807e-01
5.768070e-01
5.090807e-01
5.768070e-01
5.305926e-01
5.974760e-01
5.305926e-01
5.974760e-01
5.580093e-01
6.238184e-01
5.580093e-01
6.238184e-01
5.911506e-01
6.556617e-01
5.911506e-01
6.556617e-01
6.297983e-01
6.927963e-01
6.297983e-01
6.927963e-01
6.736958e-01
7.349770e-01
6.736958e-01
7.349770e-01
7.225500e-01
7.819239e-01
7.225500e-01
7.819239e-01
7.760315e-01
8.333245e-01
7.760315e-01
8.333245e-01
8.337753e-01
8.888362e-01
8.337753e-01
8.888362e-01
8.953810e-01
9.480907e-01
8.953810e-01
9.480907e-01
9.604115e-01
1.010700e+00
9.604115e-01
1.010700e+00
1.028390e+00
1.076267e+00
1.028390e+00
1.076267e+00
1.098789e+00
1.144407e+00
1.098789e+00
1.144407e+00
1.171014e+00
1.214775e+00
1.171014e+00
1.214775e+00
1.244355e+00
1.287122e+00
1.244355e+00
1.287122e+00
1.317860e+00
1.361322e+00
1.317860e+00
1.361322e+00
1.390401e+00
1.436294e+00
1.390401e+00
1.436294e+00
1.458108e+00
1.504519e+00
1.458108e+00
1.504519e+00
1.516211e+00
1.564395e+00
1.516211e+00
1.564395e+00
1.566181e+00
1.616567e+00
1.566181e+00
1.616567e+00
1.608652e+00
1.661026e+00
1.608652e+00
1.661026e+00
1.644259e+00
1.698213e+00
1.644259e+00
1.698213e+00
1.673534e+00
1.728656e+00
1.673534e+00
1.728656e+00
1.696913e+00
1.752857e+00
1.696913e+00
1.752857e+00
1.714746e+00
1.771244e+00
1.714746e+00
1.771244e+00
1.727299e+00
1.784145e+00
1.727299e+00
1.784145e+00
1.734757e+00
1.791795e+00
1.734757e+00
1.791795e+00
1.737231e+00
1.794329e+00
</DataArray>
<DataArray type="Float32" Name="V3" format="ascii">
0.000000e+00
0.000000e+00
4.632283e-02
4.267904e-02
4.632283e-02
4.267904e-02
9.211037e-02
8.483995e-02
9.211037e-02
8.483995e-02
1.368268e-01
1.259670e-01
1.368268e-01
1.259670e-01
1.799437e-01
1.655496e-01
1.799437e-01
1.655496e-01
2.209408e-01
2.030851e-01
2.209408e-01
2.030851e-01
2.593086e-01
2.380818e-01
2.593086e-01
2.380818e-01
2.945510e-01
2.700607e-01
2.945510e-01
2.700607e-01
3.261882e-01
2.985591e-01
3.261882e-01
2.985591e-01
3.537585e-01
3.231329e-01
3.537585e-01
3.231329e-01
3.768208e-01
3.433603e-01
3.768208e-01
3.433603e-01
3.949567e-01
3.588446e-01
3.949567e-01
3.588446e-01
4.077714e-01
3.692190e-01
4.077714e-01
3.692190e-01
4.148946e-01
3.741518e-01
4.148946e-01
3.741518e-01
4.159799e-01
3.733539e-01
4.159799e-01
3.733539e-01
4.107017e-01
3.665894e-01
4.107017e-01
3.665894e-01
3.987478e-01
3.536906e-01
3.987478e-01
3.536906e-01
3.798011e-01
3.345732e-01
3.798011e-01
3.345732e-01
3.535081e-01
3.092210e-01
3.535081e-01
3.092210e-01
3.196909e-01
2.769406e-01
3.196909e-01
2.769406e-01
2.839954e-01
2.435389e-01
2.839954e-01
2.435389e-01
2.519655e-01
2.152410e-01
2.519655e-01
2.152410e-01
2.217572e-01
1.895592e-01
2.217572e-01
1.895592e-01
1.928288e-01
1.653789e-01
1.928288e-01
1.653789e-01
1.646886e-01
1.418923e-01
1.646886e-01
1.418923e-01
1.369967e-01
1.186052e-01
1.369967e-01
1.186052e-01
1.095278e-01
9.524727e-02
1.095278e-01
9.524727e-02
8.214515e-02
7.169988e-02
8.214515e-02
7.169988e-02
5.477675e-02
4.794293e-02
5.477675e-02
4.794293e-02
2.739501e-02
2.401755e-02
2.739501e-02
2.401755e-02
0.000000e+00
0.000000e+00
</DataArray>
<DataArray type="Float32" Name="V4" format="ascii">
8.500000e-01
1.000000e+00
8.500000e-01
1.000000e+00
8.500000e-01
1.000000e+00
8.500000e-01
1.000000e+00
8.500000e-01
1.000000e+00
8.500000e-01
1.000000e+00
8.500000e-01
1.000000e+00
8.500000e-01
1.000000e+00
8.500000e-01
1.000000e+00
8.500000e-01
1.000000e+00
8.500000e-01
1.000000e+00
8.500000e-01
1.000000e+00
8.500000e-01
1.000000e+00
8.500000e-01
1.000000e+00
8.500000e-01
1.000000e+00
8.500000e-01
1.000000e+00
8.500000e-01
1.000000e+00
8.500000e-01
1.000000e+00
8.500000e-01
1.000000e+00
8.500000e-01
1.000000e+00
8.500000e-01
1.000000e+00
8.500000e-01
1.000000e+00
8.500000e-01
1.000000e+00
8.500000e-01
1.000000e+00
8.500000e-01
1.000000e+00
8.500000e-01
1.000000e+00
8.500000e-01
1.000000e+00
8.500000e-01
1.000000e+00
8.500000e-01
1.000000e+00
8.500000e-01
1.000000e+00
8.500000e-01
1.000000e+00
8.500000e-01
1.000000e+00
8.500000e-01
1.000000e+00
8.500000e-01
1.000000e+00
8.500000e-01
1.000000e+00
8.500000e-01
1.000000e+00
8.500000e-01
1.000000e+00
8.500000e-01
1.000000e+00
8.500000e-01
1.000000e+00
8.500000e-01
1.000000e+00
8.500000e-01
1.000000e+00
8.500000e-01
1.000000e+00
8.500000e-01
1.000000e+00
8.500000e-01
1.000000e+00
8.500000e-01
1.000000e+00
8.500000e-01
1.000000e+00
8.500000e-01
1.000000e+00
8.500000e-01
1.000000e+00
8.500000e-01
1.000000e+00
8.500000e-01
1.000000e+00
8.500000e-01
1.000000e+00
8.500000e-01
1.000000e+00
8.500000e-01
1.000000e+00
8.500000e-01
1.000000e+00
8.500000e-01
1.000000e+00
8.500000e-01
1.000000e+00
8.500000e-01
1.000000e+00
8.500000e-01
1.000000e+00
8.500000e-01
1.000000e+00
8.500000e-01
1.000000e+00
</DataArray>
<DataArray type="Float32" Name="V5" format="ascii">
0.000000e+00
0.000000e+00
5.235988e-02
5.235988e-02
5.235988e-02
5.235988e-02
1.047198e-01
1.047198e-01
1.047198e-01
1.047198e-01
1.570796e-01
1.570796e-01
1.570796e-01
1.570796e-01
2.094395e-01
2.094395e-01
2.094395e-01
2.094395e-01
2.617994e-01
2.617994e-01
2.617994e-01
2.617994e-01
3.141593e-01
3.141593e-01
3.141593e-01
3.141593e-01
3.665191e-01
3.665191e-01
3.665191e-01
3.665191e-01
4.188790e-01
4.188790e-01
4.188790e-01
4.188790e-01
4.712389e-01
4.712389e-01
4.712389e-01
4.712389e-01
5.235988e-01
5.235988e-01
5.235988e-01
5.235988e-01
5.759587e-01
5.759587e-01
5.759587e-01
5.759587e-01
6.283185e-01
6.283185e-01
6.283185e-01
6.283185e-01
6.806784e-01
6.806784e-01
6.806784e-01
6.806784e-01
7.330383e-01
7.330383e-01
7.330383e-01
7.330383e-01
7.853982e-01
7.853982e-01
7.853982e-01
7.853982e-01
8.377580e-01
8.377580e-01
8.377580e-01
8.377580e-01
8.901179e-01
8.901179e-01
8.901179e-01
8.901179e-01
9.424778e-01
9.424778e-01
9.424778e-01
9.424778e-01
9.948377e-01
9.948377e-01
9.948377e-01
9.948377e-01
1.047198e+00
1.047198e+00
1.047198e+00
1.047198e+00
1.099557e+00
1.099557e+00
1.099557e+00
1.099557e+00
1.151917e+00
1.151917e+00
1.151917e+00
1.151917e+00
1.204277e+00
1.204277e+00
1.204277e+00
1.204277e+00
1.256637e+00
1.256637e+00
1.256637e+00
1.256637e+00
1.308997e+00
1.308997e+00
1.308997e+00
1.308997e+00
1.361357e+00
1.361357e+00
1.361357e+00
1.361357e+00
1.413717e+00
1.413717e+00
1.413717e+00
1.413717e+00
1.466077e+00
1.466077e+00
1.466077e+00
1.466077e+00
1.518436e+00
1.518436e+00
1.518436e+00
1.518436e+00
1.570796e+00
1.570796e+00
</DataArray>
</PointData>
</Piece></UnstructuredGrid>
</VTKFile>
