<?xml version="1.0"?>
<VTKFile type="UnstructuredGrid" version="0.1" byte_order="LittleEndian" compressor="vtkZLibDataCompressor">
<UnstructuredGrid>
<Piece NumberOfPoints="120" NumberOfCells="30">
<Points>
<DataArray type="Float32" NumberOfComponents="3" format="ascii">
0.000000e+00 4.185787e-01 0.000000e+00
0.000000e+00 4.700000e-01 0.000000e+00
8.283981e-02 4.186188e-01 0.000000e+00
8.282278e-02 4.700000e-01 0.000000e+00
8.283981e-02 4.186188e-01 0.000000e+00
8.282278e-02 4.700000e-01 0.000000e+00
1.656699e-01 4.186754e-01 0.000000e+00
1.656351e-01 4.700000e-01 0.000000e+00
1.656699e-01 4.186754e-01 0.000000e+00
1.656351e-01 4.700000e-01 0.000000e+00
2.484766e-01 4.187689e-01 0.000000e+00
2.484242e-01 4.700000e-01 0.000000e+00
2.484766e-01 4.187689e-01 0.000000e+00
2.484242e-01 4.700000e-01 0.000000e+00
3.312480e-01 4.188996e-01 0.000000e+00
3.311781e-01 4.700000e-01 0.000000e+00
3.312480e-01 4.188996e-01 0.000000e+00
3.311781e-01 4.700000e-01 0.000000e+00
4.139720e-01 4.190672e-01 0.000000e+00
4.138849e-01 4.700000e-01 0.000000e+00
4.139720e-01 4.190672e-01 0.000000e+00
4.138849e-01 4.700000e-01 0.000000e+00
4.966359e-01 4.192709e-01 0.000000e+00
4.965320e-01 4.700000e-01 0.000000e+00
4.966359e-01 4.192709e-01 0.000000e+00
4.965320e-01 4.700000e-01 0.000000e+00
5.792264e-01 4.195102e-01 0.000000e+00
5.791061e-01 4.700000e-01 0.000000e+00
5.792264e-01 4.195102e-01 0.000000e+00
5.791061e-01 4.700000e-01 0.000000e+00
6.617294e-01 4.197844e-01 0.000000e+00
6.615936e-01 4.700000e-01 0.000000e+00
6.617294e-01 4.197844e-01 0.000000e+00
6.615936e-01 4.700000e-01 0.000000e+00
7.441298e-01 4.200927e-01 0.000000e+00
7.439801e-01 4.700000e-01 0.000000e+00
7.441298e-01 4.200927e-01 0.000000e+00
7.439801e-01 4.700000e-01 0.000000e+00
8.264114e-01 4.204340e-01 0.000000e+00
8.262508e-01 4.700000e-01 0.000000e+00
8.264114e-01 4.204340e-01 0.000000e+00
8.262508e-01 4.700000e-01 0.000000e+00
9.085564e-01 4.208072e-01 0.000000e+00
9.083902e-01 4.700000e-01 0.000000e+00
9.085564e-01 4.208072e-01 0.000000e+00
9.083902e-01 4.700000e-01 0.000000e+00
9.905454e-01 4.212112e-01 0.000000e+00
9.903830e-01 4.700000e-01 0.000000e+00
9.905454e-01 4.212112e-01 0.000000e+00
9.903830e-01 4.700000e-01 0.000000e+00
1.072356e+00 4.216444e-01 0.000000e+00
1.072215e+00 4.700000e-01 0.000000e+00
1.072356e+00 4.216444e-01 0.000000e+00
1.072215e+00 4.700000e-01 0.000000e+00
1.153962e+00 4.221047e-01 0.000000e+00
1.153873e+00 4.700000e-01 0.000000e+00
1.153962e+00 4.221047e-01 0.000000e+00
1.153873e+00 4.700000e-01 0.000000e+00
1.235331e+00 4.225892e-01 0.000000e+00
1.235352e+00 4.700000e-01 0.000000e+00
1.235331e+00 4.225892e-01 0.000000e+00
1.235352e+00 4.700000e-01 0.000000e+00
1.316421e+00 4.230933e-01 0.000000e+00
1.316657e+00 4.700000e-01 0.000000e+00
1.316421e+00 4.230933e-01 0.000000e+00
1.316657e+00 4.700000e-01 0.000000e+00
1.397175e+00 4.236096e-01 0.000000e+00
1.397815e+00 4.700000e-01 0.000000e+00
1.397175e+00 4.236096e-01 0.000000e+00
1.397815e+00 4.700000e-01 0.000000e+00
1.477504e+00 4.241273e-01 0.000000e+00
1.478901e+00 4.700000e-01 0.000000e+00
1.477504e+00 4.241273e-01 0.000000e+00
1.478901e+00 4.700000e-01 0.000000e+00
1.557268e+00 4.246368e-01 0.000000e+00
1.560073e+00 4.700000e-01 0.000000e+00
1.557268e+00 4.246368e-01 0.000000e+00
1.560073e+00 4.700000e-01 0.000000e+00
1.636209e+00 4.251538e-01 0.000000e+00
1.641643e+00 4.700000e-01 0.000000e+00
1.636209e+00 4.251538e-01 0.000000e+00
1.641643e+00 4.700000e-01 0.000000e+00
1.713812e+00 4.257827e-01 0.000000e+00
1.724163e+00 4.700000e-01 0.000000e+00
1.713812e+00 4.257827e-01 0.000000e+00
1.724163e+00 4.700000e-01 0.000000e+00
1.789767e+00 4.252458e-01 0.000000e+00
1.804744e+00 4.681229e-01 0.000000e+00
1.789767e+00 4.252458e-01 0.000000e+00
1.804744e+00 4.681229e-01 0.000000e+00
1.862413e+00 4.082864e-01 0.000000e+00
1.881611e+00 4.478623e-01 0.000000e+00
1.862413e+00 4.082864e-01 0.000000e+00
1.881611e+00 4.478623e-01 0.000000e+00
1.927979e+00 3.749707e-01 0.000000e+00
1.952450e+00 4.106235e-01 0.000000e+00
1.927979e+00 3.749707e-01 0.000000e+00
1.952450e+00 4.106235e-01 0.000000e+00
1.984697e+00 3.291990e-01 0.000000e+00
2.014275e+00 3.599409e-01 0.000000e+00
1.984697e+00 3.291990e-01 0.000000e+00
2.014275e+00 3.599409e-01 0.000000e+00
2.031726e+00 2.738523e-01 0.000000e+00
2.065617e+00 2.989511e-01 0.000000e+00
2.031726e+00 2.738523e-01 0.000000e+00
2.065617e+00 2.989511e-01 0.000000e+00
2.068610e+00 2.113077e-01 0.000000e+00
2.105812e+00 2.303399e-01 0.000000e+00
2.068610e+00 2.113077e-01 0.000000e+00
2.105812e+00 2.303399e-01 0.000000e+00
2.095086e+00 1.436182e-01 0.000000e+00
2.134591e+00 1.563754e-01 0.000000e+00
2.095086e+00 1.436182e-01 0.000000e+00
2.134591e+00 1.563754e-01 0.000000e+00
2.111014e+00 7.261860e-02 0.000000e+00
2.151867e+00 7.901217e-02 0.000000e+00
2.111014e+00 7.261860e-02 0.000000e+00
2.151867e+00 7.901217e-02 0.000000e+00
2.116329e+00 1.036279e-11 0.000000e+00
2.157626e+00 1.056501e-11 0.000000e+00
</DataArray>
</Points>
<Cells>
<DataArray type="Int32" Name="connectivity" format="ascii">
0 1 3 2
4 5 7 6
8 9 11 10
12 13 15 14
16 17 19 18
20 21 23 22
24 25 27 26
28 29 31 30
32 33 35 34
36 37 39 38
40 41 43 42
44 45 47 46
48 49 51 50
52 53 55 54
56 57 59 58
60 61 63 62
64 65 67 66
68 69 71 70
72 73 75 74
76 77 79 78
80 81 83 82
84 85 87 86
88 89 91 90
92 93 95 94
96 97 99 98
100 101 103 102
104 105 107 106
108 109 111 110
112 113 115 114
116 117 119 118
</DataArray>
<DataArray type="Int32" Name="offsets" format="ascii">
4
8
12
16
20
24
28
32
36
40
44
48
52
56
60
64
68
72
76
80
84
88
92
96
100
104
108
112
116
120
</DataArray>
<DataArray type="UInt8" Name="types" format="ascii">
9
9
9
9
9
9
9
9
9
9
9
9
9
9
9
9
9
9
9
9
9
9
9
9
9
9
9
9
9
9
</DataArray>
</Cells>
<PointData>
<DataArray type="Float32" Name="V1" format="ascii">
2.302583e+02
1.003464e+01
2.304882e+02
1.026459e+01
2.308461e+02
1.003095e+01
2.315058e+02
1.069065e+01
2.322282e+02
1.021853e+01
2.333412e+02
1.133148e+01
2.344331e+02
1.061503e+01
2.360098e+02
1.219180e+01
2.374833e+02
1.122402e+01
2.395426e+02
1.328327e+01
2.414135e+02
1.205323e+01
2.439801e+02
1.461987e+01
2.462688e+02
1.311356e+01
2.493745e+02
1.621928e+01
2.521059e+02
1.441940e+01
2.557901e+02
1.810359e+01
2.589944e+02
1.598922e+01
2.633054e+02
2.030026e+01
2.670172e+02
1.784661e+01
2.720140e+02
2.284341e+01
2.762726e+02
2.002176e+01
2.820269e+02
2.577608e+01
2.868739e+02
2.255394e+01
2.934734e+02
2.915345e+01
2.989494e+02
2.549566e+01
3.065023e+02
3.304859e+01
3.126380e+02
2.891981e+01
3.212801e+02
3.756195e+01
3.280796e+02
3.293255e+01
3.379855e+02
4.283838e+01
3.453923e+02
3.769714e+01
3.567928e+02
4.909763e+01
3.646249e+02
4.348004e+01
3.778345e+02
5.668960e+01
3.856627e+02
5.074557e+01
4.011104e+02
6.619321e+01
4.080462e+02
6.036587e+01
4.262686e+02
7.858836e+01
4.306289e+02
7.411922e+01
4.520642e+02
9.555453e+01
4.509267e+02
9.584760e+01
4.750900e+02
1.200110e+02
4.581200e+02
1.371849e+02
4.921506e+02
1.712155e+02
4.798561e+02
1.790211e+02
5.092358e+02
2.084008e+02
5.125121e+02
2.059706e+02
5.403392e+02
2.337977e+02
5.510457e+02
2.271071e+02
5.769048e+02
2.529661e+02
5.900256e+02
2.442585e+02
6.129097e+02
2.671426e+02
6.255355e+02
2.583220e+02
6.443966e+02
2.771831e+02
6.548489e+02
2.696323e+02
6.688603e+02
2.836437e+02
6.762157e+02
2.782248e+02
6.848255e+02
2.868346e+02
6.886052e+02
2.840220e+02
6.915076e+02
2.869243e+02
</DataArray>
<DataArray type="Float32" Name="V2" format="ascii">
4.185787e-01
4.700000e-01
4.223806e-01
4.736905e-01
4.223806e-01
4.736905e-01
4.336990e-01
4.847389e-01
4.336990e-01
4.847389e-01
4.524835e-01
5.030756e-01
4.524835e-01
5.030756e-01
4.786160e-01
5.285852e-01
4.786160e-01
5.285852e-01
5.119316e-01
5.611064e-01
5.119316e-01
5.611064e-01
5.522193e-01
6.004334e-01
5.522193e-01
6.004334e-01
5.992227e-01
6.463159e-01
5.992227e-01
6.463159e-01
6.526418e-01
6.984607e-01
6.526418e-01
6.984607e-01
7.121331e-01
7.565330e-01
7.121331e-01
7.565330e-01
7.773122e-01
8.201573e-01
7.773122e-01
8.201573e-01
8.477540e-01
8.889199e-01
8.477540e-01
8.889199e-01
9.229950e-01
9.623705e-01
9.229950e-01
9.623705e-01
1.002535e+00
1.040025e+00
1.002535e+00
1.040025e+00
1.085836e+00
1.121370e+00
1.085836e+00
1.121370e+00
1.172326e+00
1.205866e+00
1.172326e+00
1.205866e+00
1.261396e+00
1.292958e+00
1.261396e+00
1.292958e+00
1.352395e+00
1.382087e+00
1.352395e+00
1.382087e+00
1.444622e+00
1.472715e+00
1.444622e+00
1.472715e+00
1.537308e+00
1.564368e+00
1.537308e+00
1.564368e+00
1.629575e+00
1.656705e+00
1.629575e+00
1.656705e+00
1.720319e+00
1.749616e+00
1.720319e+00
1.749616e+00
1.807996e+00
1.839118e+00
1.807996e+00
1.839118e+00
1.885030e+00
1.917135e+00
1.885030e+00
1.917135e+00
1.949489e+00
1.983779e+00
1.949489e+00
1.983779e+00
2.002273e+00
2.038800e+00
2.002273e+00
2.038800e+00
2.044265e+00
2.082633e+00
2.044265e+00
2.082633e+00
2.076197e+00
2.115919e+00
2.076197e+00
2.115919e+00
2.098621e+00
2.139243e+00
2.098621e+00
2.139243e+00
2.111922e+00
2.153054e+00
2.111922e+00
2.153054e+00
2.116329e+00
2.157626e+00
</DataArray>
<DataArray type="Float32" Name="V3" format="ascii">
0.000000e+00
0.000000e+00
6.081746e-02
5.811137e-02
6.081746e-02
5.811137e-02
1.209989e-01
1.155994e-01
1.209989e-01
1.155994e-01
1.799075e-01
1.718414e-01
1.799075e-01
1.718414e-01
2.369153e-01
2.262226e-01
2.369153e-01
2.262226e-01
2.914037e-01
2.781372e-01
2.914037e-01
2.781372e-01
3.427670e-01
3.269920e-01
3.427670e-01
3.269920e-01
3.904154e-01
3.722092e-01
3.904154e-01
3.722092e-01
4.337781e-01
4.132296e-01
4.337781e-01
4.132296e-01
4.723064e-01
4.495156e-01
4.723064e-01
4.495156e-01
5.054762e-01
4.805542e-01
5.054762e-01
4.805542e-01
5.327915e-01
5.058598e-01
5.327915e-01
5.058598e-01
5.537863e-01
5.249776e-01
5.537863e-01
5.249776e-01
5.680276e-01
5.374868e-01
5.680276e-01
5.374868e-01
5.751175e-01
5.430036e-01
5.751175e-01
5.430036e-01
5.746951e-01
5.411858e-01
5.746951e-01
5.411858e-01
5.664381e-01
5.317374e-01
5.664381e-01
5.317374e-01
5.500641e-01
5.144151e-01
5.500641e-01
5.144151e-01
5.253291e-01
4.890381e-01
5.253291e-01
4.890381e-01
4.920185e-01
4.555014e-01
4.920185e-01
4.555014e-01
4.499103e-01
4.137897e-01
4.499103e-01
4.137897e-01
3.986791e-01
3.639804e-01
3.986791e-01
3.639804e-01
3.394824e-01
3.064040e-01
3.394824e-01
3.064040e-01
2.862611e-01
2.561937e-01
2.862611e-01
2.561937e-01
2.391598e-01
2.128139e-01
2.391598e-01
2.128139e-01
1.956956e-01
1.736566e-01
1.956956e-01
1.736566e-01
1.545517e-01
1.370476e-01
1.545517e-01
1.370476e-01
1.148957e-01
1.019175e-01
1.148957e-01
1.019175e-01
7.616462e-02
6.760674e-02
7.616462e-02
6.760674e-02
3.796286e-02
3.371616e-02
3.796286e-02
3.371616e-02
0.000000e+00
0.000000e+00
</DataArray>
<DataArray type="Float32" Name="V4" format="ascii">
8.500000e-01
1.000000e+00
8.500000e-01
1.000000e+00
8.500000e-01
1.000000e+00
8.500000e-01
1.000000e+00
8.500000e-01
1.000000e+00
8.500000e-01
1.000000e+00
8.500000e-01
1.000000e+00
8.500000e-01
1.000000e+00
8.500000e-01
1.000000e+00
8.500000e-01
1.000000e+00
8.500000e-01
1.000000e+00
8.500000e-01
1.000000e+00
8.500000e-01
1.000000e+00
8.500000e-01
1.000000e+00
8.500000e-01
1.000000e+00
8.500000e-01
1.000000e+00
8.500000e-01
1.000000e+00
8.500000e-01
1.000000e+00
8.500000e-01
1.000000e+00
8.500000e-01
1.000000e+00
8.500000e-01
1.000000e+00
8.500000e-01
1.000000e+00
8.500000e-01
1.000000e+00
8.500000e-01
1.000000e+00
8.500000e-01
1.000000e+00
8.500000e-01
1.000000e+00
8.500000e-01
1.000000e+00
8.500000e-01
1.000000e+00
8.500000e-01
1.000000e+00
8.500000e-01
1.000000e+00
8.500000e-01
1.000000e+00
8.500000e-01
1.000000e+00
8.500000e-01
1.000000e+00
8.500000e-01
1.000000e+00
8.500000e-01
1.000000e+00
8.500000e-01
1.000000e+00
8.500000e-01
1.000000e+00
8.500000e-01
1.000000e+00
8.500000e-01
1.000000e+00
8.500000e-01
1.000000e+00
8.500000e-01
1.000000e+00
8.500000e-01
1.000000e+00
8.500000e-01
1.000000e+00
8.500000e-01
1.000000e+00
8.500000e-01
1.000000e+00
8.500000e-01
1.000000e+00
8.500000e-01
1.000000e+00
8.500000e-01
1.000000e+00
8.500000e-01
1.000000e+00
8.500000e-01
1.000000e+00
8.500000e-01
1.000000e+00
8.500000e-01
1.000000e+00
8.500000e-01
1.000000e+00
8.500000e-01
1.000000e+00
8.500000e-01
1.000000e+00
8.500000e-01
1.000000e+00
8.500000e-01
1.000000e+00
8.500000e-01
1.000000e+00
8.500000e-01
1.000000e+00
8.500000e-01
1.000000e+00
</DataArray>
<DataArray type="Float32" Name="V5" format="ascii">
0.000000e+00
0.000000e+00
5.235988e-02
5.235988e-02
5.235988e-02
5.235988e-02
1.047198e-01
1.047198e-01
1.047198e-01
1.047198e-01
1.570796e-01
1.570796e-01
1.570796e-01
1.570796e-01
2.094395e-01
2.094395e-01
2.094395e-01
2.094395e-01
2.617994e-01
2.617994e-01
2.617994e-01
2.617994e-01
3.141593e-01
3.141593e-01
3.141593e-01
3.141593e-01
3.665191e-01
3.665191e-01
3.665191e-01
3.665191e-01
4.188790e-01
4.188790e-01
4.188790e-01
4.188790e-01
4.712389e-01
4.712389e-01
4.712389e-01
4.712389e-01
5.235988e-01
5.235988e-01
5.235988e-01
5.235988e-01
5.759587e-01
5.759587e-01
5.759587e-01
5.759587e-01
6.283185e-01
6.283185e-01
6.283185e-01
6.283185e-01
6.806784e-01
6.806784e-01
6.806784e-01
6.806784e-01
7.330383e-01
7.330383e-01
7.330383e-01
7.330383e-01
7.853982e-01
7.853982e-01
7.853982e-01
7.853982e-01
8.377580e-01
8.377580e-01
8.377580e-01
8.377580e-01
8.901179e-01
8.901179e-01
8.901179e-01
8.901179e-01
9.424778e-01
9.424778e-01
9.424778e-01
9.424778e-01
9.948377e-01
9.948377e-01
9.948377e-01
9.948377e-01
1.047198e+00
1.047198e+00
1.047198e+00
1.047198e+00
1.099557e+00
1.099557e+00
1.099557e+00
1.099557e+00
1.151917e+00
1.151917e+00
1.151917e+00
1.151917e+00
1.204277e+00
1.204277e+00
1.204277e+00
1.204277e+00
1.256637e+00
1.256637e+00
1.256637e+00
1.256637e+00
1.308997e+00
1.308997e+00
1.308997e+00
1.308997e+00
1.361357e+00
1.361357e+00
1.361357e+00
1.361357e+00
1.413717e+00
1.413717e+00
1.413717e+00
1.413717e+00
1.466077e+00
1.466077e+00
1.466077e+00
1.466077e+00
1.518436e+00
1.518436e+00
1.518436e+00
1.518436e+00
1.570796e+00
1.570796e+00
</DataArray>
</PointData>
</Piece></UnstructuredGrid>
</VTKFile>
