<?xml version="1.0"?>
<VTKFile type="UnstructuredGrid" version="0.1" byte_order="LittleEndian" compressor="vtkZLibDataCompressor">
<UnstructuredGrid>
<Piece NumberOfPoints="120" NumberOfCells="30">
<Points>
<DataArray type="Float32" NumberOfComponents="3" format="ascii">
0.000000e+00 6.889805e-01 0.000000e+00
0.000000e+00 7.900000e-01 0.000000e+00
5.914731e-02 6.890345e-01 0.000000e+00
5.904669e-02 7.900000e-01 0.000000e+00
5.914731e-02 6.890345e-01 0.000000e+00
5.904669e-02 7.900000e-01 0.000000e+00
1.182932e-01 6.891691e-01 0.000000e+00
1.180931e-01 7.900000e-01 0.000000e+00
1.182932e-01 6.891691e-01 0.000000e+00
1.180931e-01 7.900000e-01 0.000000e+00
1.774333e-01 6.893944e-01 0.000000e+00
1.771415e-01 7.900000e-01 0.000000e+00
1.774333e-01 6.893944e-01 0.000000e+00
1.771415e-01 7.900000e-01 0.000000e+00
2.365630e-01 6.897115e-01 0.000000e+00
2.361963e-01 7.900000e-01 0.000000e+00
2.365630e-01 6.897115e-01 0.000000e+00
2.361963e-01 7.900000e-01 0.000000e+00
2.956740e-01 6.901234e-01 0.000000e+00
2.952691e-01 7.900000e-01 0.000000e+00
2.956740e-01 6.901234e-01 0.000000e+00
2.952691e-01 7.900000e-01 0.000000e+00
3.547503e-01 6.906360e-01 0.000000e+00
3.543859e-01 7.900000e-01 0.000000e+00
3.547503e-01 6.906360e-01 0.000000e+00
3.543859e-01 7.900000e-01 0.000000e+00
4.137602e-01 6.912593e-01 0.000000e+00
4.136000e-01 7.900000e-01 0.000000e+00
4.137602e-01 6.912593e-01 0.000000e+00
4.136000e-01 7.900000e-01 0.000000e+00
4.726398e-01 6.920060e-01 0.000000e+00
4.730124e-01 7.900000e-01 0.000000e+00
4.726398e-01 6.920060e-01 0.000000e+00
4.730124e-01 7.900000e-01 0.000000e+00
5.312605e-01 6.928802e-01 0.000000e+00
5.327981e-01 7.900000e-01 0.000000e+00
5.312605e-01 6.928802e-01 0.000000e+00
5.327981e-01 7.900000e-01 0.000000e+00
5.893694e-01 6.938349e-01 0.000000e+00
5.932156e-01 7.900000e-01 0.000000e+00
5.893694e-01 6.938349e-01 0.000000e+00
5.932156e-01 7.900000e-01 0.000000e+00
6.464897e-01 6.945980e-01 0.000000e+00
6.545219e-01 7.900000e-01 0.000000e+00
6.464897e-01 6.945980e-01 0.000000e+00
6.545219e-01 7.900000e-01 0.000000e+00
7.021433e-01 6.946139e-01 0.000000e+00
7.162961e-01 7.900000e-01 0.000000e+00
7.021433e-01 6.946139e-01 0.000000e+00
7.162961e-01 7.900000e-01 0.000000e+00
7.567866e-01 6.910643e-01 0.000000e+00
7.768747e-01 7.854621e-01 0.000000e+00
7.567866e-01 6.910643e-01 0.000000e+00
7.768747e-01 7.854621e-01 0.000000e+00
8.092083e-01 6.808678e-01 0.000000e+00
8.368259e-01 7.720485e-01 0.000000e+00
8.092083e-01 6.808678e-01 0.000000e+00
8.368259e-01 7.720485e-01 0.000000e+00
8.596228e-01 6.647010e-01 0.000000e+00
8.954704e-01 7.518248e-01 0.000000e+00
8.596228e-01 6.647010e-01 0.000000e+00
8.954704e-01 7.518248e-01 0.000000e+00
9.078559e-01 6.428143e-01 0.000000e+00
9.516752e-01 7.251762e-01 0.000000e+00
9.078559e-01 6.428143e-01 0.000000e+00
9.516752e-01 7.251762e-01 0.000000e+00
9.536537e-01 6.157901e-01 0.000000e+00
1.004788e+00 6.928536e-01 0.000000e+00
9.536537e-01 6.157901e-01 0.000000e+00
1.004788e+00 6.928536e-01 0.000000e+00
9.967614e-01 5.841540e-01 0.000000e+00
1.054407e+00 6.555673e-01 0.000000e+00
9.967614e-01 5.841540e-01 0.000000e+00
1.054407e+00 6.555673e-01 0.000000e+00
1.036962e+00 5.484187e-01 0.000000e+00
1.100307e+00 6.139731e-01 0.000000e+00
1.036962e+00 5.484187e-01 0.000000e+00
1.100307e+00 6.139731e-01 0.000000e+00
1.074078e+00 5.090637e-01 0.000000e+00
1.142359e+00 5.686495e-01 0.000000e+00
1.074078e+00 5.090637e-01 0.000000e+00
1.142359e+00 5.686495e-01 0.000000e+00
1.107966e+00 4.665328e-01 0.000000e+00
1.180491e+00 5.201040e-01 0.000000e+00
1.107966e+00 4.665328e-01 0.000000e+00
1.180491e+00 5.201040e-01 0.000000e+00
1.138515e+00 4.212355e-01 0.000000e+00
1.214662e+00 4.687833e-01 0.000000e+00
1.138515e+00 4.212355e-01 0.000000e+00
1.214662e+00 4.687833e-01 0.000000e+00
1.165637e+00 3.735494e-01 0.000000e+00
1.244848e+00 4.150855e-01 0.000000e+00
1.165637e+00 3.735494e-01 0.000000e+00
1.244848e+00 4.150855e-01 0.000000e+00
1.189262e+00 3.238255e-01 0.000000e+00
1.271034e+00 3.593708e-01 0.000000e+00
1.189262e+00 3.238255e-01 0.000000e+00
1.271034e+00 3.593708e-01 0.000000e+00
1.209334e+00 2.723920e-01 0.000000e+00
1.293208e+00 3.019700e-01 0.000000e+00
1.209334e+00 2.723920e-01 0.000000e+00
1.293208e+00 3.019700e-01 0.000000e+00
1.225810e+00 2.195588e-01 0.000000e+00
1.311362e+00 2.431920e-01 0.000000e+00
1.225810e+00 2.195588e-01 0.000000e+00
1.311362e+00 2.431920e-01 0.000000e+00
1.238658e+00 1.656217e-01 0.000000e+00
1.325489e+00 1.833292e-01 0.000000e+00
1.238658e+00 1.656217e-01 0.000000e+00
1.325489e+00 1.833292e-01 0.000000e+00
1.247852e+00 1.108656e-01 0.000000e+00
1.335585e+00 1.226622e-01 0.000000e+00
1.247852e+00 1.108656e-01 0.000000e+00
1.335585e+00 1.226622e-01 0.000000e+00
1.253375e+00 5.556766e-02 0.000000e+00
1.341643e+00 6.146345e-02 0.000000e+00
1.253375e+00 5.556766e-02 0.000000e+00
1.341643e+00 6.146345e-02 0.000000e+00
1.255218e+00 6.146280e-12 0.000000e+00
1.343663e+00 6.579370e-12 0.000000e+00
</DataArray>
</Points>
<Cells>
<DataArray type="Int32" Name="connectivity" format="ascii">
0 1 3 2
4 5 7 6
8 9 11 10
12 13 15 14
16 17 19 18
20 21 23 22
24 25 27 26
28 29 31 30
32 33 35 34
36 37 39 38
40 41 43 42
44 45 47 46
48 49 51 50
52 53 55 54
56 57 59 58
60 61 63 62
64 65 67 66
68 69 71 70
72 73 75 74
76 77 79 78
80 81 83 82
84 85 87 86
88 89 91 90
92 93 95 94
96 97 99 98
100 101 103 102
104 105 107 106
108 109 111 110
112 113 115 114
116 117 119 118
</DataArray>
<DataArray type="Int32" Name="offsets" format="ascii">
4
8
12
16
20
24
28
32
36
40
44
48
52
56
60
64
68
72
76
80
84
88
92
96
100
104
108
112
116
120
</DataArray>
<DataArray type="UInt8" Name="types" format="ascii">
9
9
9
9
9
9
9
9
9
9
9
9
9
9
9
9
9
9
9
9
9
9
9
9
9
9
9
9
9
9
</DataArray>
</Cells>
<PointData>
<DataArray type="Float32" Name="V1" format="ascii">
1.525043e+01
-5.885890e-01
1.527199e+01
-5.670296e-01
1.530044e+01
-5.866693e-01
1.535777e+01
-5.293398e-01
1.541624e+01
-5.688853e-01
1.551315e+01
-4.719773e-01
1.559956e+01
-5.313629e-01
1.573687e+01
-3.940539e-01
1.584900e+01
-4.718806e-01
1.602800e+01
-2.928847e-01
1.615946e+01
-3.851787e-01
1.638223e+01
-1.624130e-01
1.651723e+01
-2.593099e-01
1.678746e+01
1.092655e-02
1.689029e+01
-6.784874e-02
1.721542e+01
2.572806e-01
1.721067e+01
2.463528e-01
1.760680e+01
6.424791e-01
1.734527e+01
8.046363e-01
1.784892e+01
1.308288e+00
1.705629e+01
1.852068e+00
1.777198e+01
2.567752e+00
1.593107e+01
4.005440e+00
1.711096e+01
5.185327e+00
1.438612e+01
7.806127e+00
1.563418e+01
9.054187e+00
1.421030e+01
9.900571e+00
1.486791e+01
1.055818e+01
1.443417e+01
1.091796e+01
1.508599e+01
1.156978e+01
1.501674e+01
1.163373e+01
1.564766e+01
1.226465e+01
1.578791e+01
1.215159e+01
1.638140e+01
1.274509e+01
1.662282e+01
1.254550e+01
1.716714e+01
1.308982e+01
1.745182e+01
1.285526e+01
1.794199e+01
1.334544e+01
1.823536e+01
1.310587e+01
1.867050e+01
1.354101e+01
1.895291e+01
1.331279e+01
1.933453e+01
1.369442e+01
1.959510e+01
1.348599e+01
1.992590e+01
1.381679e+01
2.015906e+01
1.363201e+01
2.044215e+01
1.391510e+01
2.064541e+01
1.375530e+01
2.088390e+01
1.399379e+01
2.105658e+01
1.385895e+01
2.125334e+01
1.405571e+01
2.139565e+01
1.394521e+01
2.155318e+01
1.410273e+01
2.166576e+01
1.401569e+01
2.178613e+01
1.413606e+01
2.186974e+01
1.407163e+01
2.195457e+01
1.415645e+01
2.200989e+01
1.411393e+01
2.206032e+01
1.416436e+01
2.208785e+01
1.414323e+01
2.210458e+01
1.415996e+01
</DataArray>
<DataArray type="Float32" Name="V2" format="ascii">
6.889805e-01
7.900000e-01
6.911857e-01
7.920076e-01
6.911857e-01
7.920076e-01
6.977588e-01
7.980164e-01
6.977588e-01
7.980164e-01
7.086635e-01
8.079848e-01
7.086635e-01
8.079848e-01
7.238238e-01
8.218446e-01
7.238238e-01
8.218446e-01
7.431341e-01
8.395027e-01
7.431341e-01
8.395027e-01
7.664578e-01
8.608459e-01
7.664578e-01
8.608459e-01
7.936246e-01
8.857495e-01
7.936246e-01
8.857495e-01
8.244189e-01
9.140924e-01
8.244189e-01
9.140924e-01
8.585480e-01
9.457804e-01
8.585480e-01
9.457804e-01
8.955633e-01
9.807678e-01
8.955633e-01
9.807678e-01
9.346424e-01
1.019028e+00
9.346424e-01
1.019028e+00
9.746640e-01
1.060152e+00
9.746640e-01
1.060152e+00
1.013319e+00
1.099322e+00
1.013319e+00
1.099322e+00
1.047449e+00
1.133690e+00
1.047449e+00
1.133690e+00
1.077860e+00
1.164814e+00
1.077860e+00
1.164814e+00
1.104795e+00
1.192470e+00
1.104795e+00
1.192470e+00
1.128657e+00
1.216894e+00
1.128657e+00
1.216894e+00
1.149754e+00
1.238366e+00
1.149754e+00
1.238366e+00
1.168360e+00
1.257189e+00
1.168360e+00
1.257189e+00
1.184710e+00
1.273637e+00
1.184710e+00
1.273637e+00
1.199006e+00
1.287948e+00
1.199006e+00
1.287948e+00
1.211417e+00
1.300320e+00
1.211417e+00
1.300320e+00
1.222084e+00
1.310919e+00
1.222084e+00
1.310919e+00
1.231123e+00
1.319877e+00
1.231123e+00
1.319877e+00
1.238627e+00
1.327299e+00
1.238627e+00
1.327299e+00
1.244672e+00
1.333268e+00
1.244672e+00
1.333268e+00
1.249317e+00
1.337850e+00
1.249317e+00
1.337850e+00
1.252605e+00
1.341090e+00
1.252605e+00
1.341090e+00
1.254566e+00
1.343021e+00
1.254566e+00
1.343021e+00
1.255218e+00
1.343663e+00
</DataArray>
<DataArray type="Float32" Name="V3" format="ascii">
0.000000e+00
0.000000e+00
2.300497e-02
1.762037e-02
2.300497e-02
1.762037e-02
4.560739e-02
3.486872e-02
4.560739e-02
3.486872e-02
6.740373e-02
5.137739e-02
6.740373e-02
5.137739e-02
8.799443e-02
6.678457e-02
8.799443e-02
6.678457e-02
1.069821e-01
8.074097e-02
1.069821e-01
8.074097e-02
1.239693e-01
9.291760e-02
1.239693e-01
9.291760e-02
1.385533e-01
1.030182e-01
1.385533e-01
1.030182e-01
1.503137e-01
1.107964e-01
1.503137e-01
1.107964e-01
1.587956e-01
1.160741e-01
1.587956e-01
1.160741e-01
1.634914e-01
1.187397e-01
1.634914e-01
1.187397e-01
1.638867e-01
1.186634e-01
1.638867e-01
1.186634e-01
1.597621e-01
1.151454e-01
1.597621e-01
1.151454e-01
1.532328e-01
1.094377e-01
1.532328e-01
1.094377e-01
1.457695e-01
1.052816e-01
1.457695e-01
1.052816e-01
1.378305e-01
1.015728e-01
1.378305e-01
1.015728e-01
1.297701e-01
9.788411e-02
1.297701e-01
9.788411e-02
1.215949e-01
9.388518e-02
1.215949e-01
9.388518e-02
1.132912e-01
8.940007e-02
1.132912e-01
8.940007e-02
1.048274e-01
8.434922e-02
1.048274e-01
8.434922e-02
9.617672e-02
7.871472e-02
9.617672e-02
7.871472e-02
8.732225e-02
7.251575e-02
8.732225e-02
7.251575e-02
7.825815e-02
6.579283e-02
7.825815e-02
6.579283e-02
6.898852e-02
5.859804e-02
6.898852e-02
5.859804e-02
5.952566e-02
5.098916e-02
5.952566e-02
5.098916e-02
4.988818e-02
4.302627e-02
4.988818e-02
4.302627e-02
4.009942e-02
3.476989e-02
4.009942e-02
3.476989e-02
3.018621e-02
2.628014e-02
3.018621e-02
2.628014e-02
2.017781e-02
1.761632e-02
2.017781e-02
1.761632e-02
1.010510e-02
8.836961e-03
1.010510e-02
8.836961e-03
0.000000e+00
0.000000e+00
</DataArray>
<DataArray type="Float32" Name="V4" format="ascii">
8.500000e-01
1.000000e+00
8.500000e-01
1.000000e+00
8.500000e-01
1.000000e+00
8.500000e-01
1.000000e+00
8.500000e-01
1.000000e+00
8.500000e-01
1.000000e+00
8.500000e-01
1.000000e+00
8.500000e-01
1.000000e+00
8.500000e-01
1.000000e+00
8.500000e-01
1.000000e+00
8.500000e-01
1.000000e+00
8.500000e-01
1.000000e+00
8.500000e-01
1.000000e+00
8.500000e-01
1.000000e+00
8.500000e-01
1.000000e+00
8.500000e-01
1.000000e+00
8.500000e-01
1.000000e+00
8.500000e-01
1.000000e+00
8.500000e-01
1.000000e+00
8.500000e-01
1.000000e+00
8.500000e-01
1.000000e+00
8.500000e-01
1.000000e+00
8.500000e-01
1.000000e+00
8.500000e-01
1.000000e+00
8.500000e-01
1.000000e+00
8.500000e-01
1.000000e+00
8.500000e-01
1.000000e+00
8.500000e-01
1.000000e+00
8.500000e-01
1.000000e+00
8.500000e-01
1.000000e+00
8.500000e-01
1.000000e+00
8.500000e-01
1.000000e+00
8.500000e-01
1.000000e+00
8.500000e-01
1.000000e+00
8.500000e-01
1.000000e+00
8.500000e-01
1.000000e+00
8.500000e-01
1.000000e+00
8.500000e-01
1.000000e+00
8.500000e-01
1.000000e+00
8.500000e-01
1.000000e+00
8.500000e-01
1.000000e+00
8.500000e-01
1.000000e+00
8.500000e-01
1.000000e+00
8.500000e-01
1.000000e+00
8.500000e-01
1.000000e+00
8.500000e-01
1.000000e+00
8.500000e-01
1.000000e+00
8.500000e-01
1.000000e+00
8.500000e-01
1.000000e+00
8.500000e-01
1.000000e+00
8.500000e-01
1.000000e+00
8.500000e-01
1.000000e+00
8.500000e-01
1.000000e+00
8.500000e-01
1.000000e+00
8.500000e-01
1.000000e+00
8.500000e-01
1.000000e+00
8.500000e-01
1.000000e+00
8.500000e-01
1.000000e+00
8.500000e-01
1.000000e+00
8.500000e-01
1.000000e+00
</DataArray>
<DataArray type="Float32" Name="V5" format="ascii">
0.000000e+00
0.000000e+00
5.235988e-02
5.235988e-02
5.235988e-02
5.235988e-02
1.047198e-01
1.047198e-01
1.047198e-01
1.047198e-01
1.570796e-01
1.570796e-01
1.570796e-01
1.570796e-01
2.094395e-01
2.094395e-01
2.094395e-01
2.094395e-01
2.617994e-01
2.617994e-01
2.617994e-01
2.617994e-01
3.141593e-01
3.141593e-01
3.141593e-01
3.141593e-01
3.665191e-01
3.665191e-01
3.665191e-01
3.665191e-01
4.188790e-01
4.188790e-01
4.188790e-01
4.188790e-01
4.712389e-01
4.712389e-01
4.712389e-01
4.712389e-01
5.235988e-01
5.235988e-01
5.235988e-01
5.235988e-01
5.759587e-01
5.759587e-01
5.759587e-01
5.759587e-01
6.283185e-01
6.283185e-01
6.283185e-01
6.283185e-01
6.806784e-01
6.806784e-01
6.806784e-01
6.806784e-01
7.330383e-01
7.330383e-01
7.330383e-01
7.330383e-01
7.853982e-01
7.853982e-01
7.853982e-01
7.853982e-01
8.377580e-01
8.377580e-01
8.377580e-01
8.377580e-01
8.901179e-01
8.901179e-01
8.901179e-01
8.901179e-01
9.424778e-01
9.424778e-01
9.424778e-01
9.424778e-01
9.948377e-01
9.948377e-01
9.948377e-01
9.948377e-01
1.047198e+00
1.047198e+00
1.047198e+00
1.047198e+00
1.099557e+00
1.099557e+00
1.099557e+00
1.099557e+00
1.151917e+00
1.151917e+00
1.151917e+00
1.151917e+00
1.204277e+00
1.204277e+00
1.204277e+00
1.204277e+00
1.256637e+00
1.256637e+00
1.256637e+00
1.256637e+00
1.308997e+00
1.308997e+00
1.308997e+00
1.308997e+00
1.361357e+00
1.361357e+00
1.361357e+00
1.361357e+00
1.413717e+00
1.413717e+00
1.413717e+00
1.413717e+00
1.466077e+00
1.466077e+00
1.466077e+00
1.466077e+00
1.518436e+00
1.518436e+00
1.518436e+00
1.518436e+00
1.570796e+00
1.570796e+00
</DataArray>
</PointData>
</Piece></UnstructuredGrid>
</VTKFile>
