<?xml version="1.0"?>
<VTKFile type="UnstructuredGrid" version="0.1" byte_order="LittleEndian" compressor="vtkZLibDataCompressor">
<UnstructuredGrid>
<Piece NumberOfPoints="120" NumberOfCells="30">
<Points>
<DataArray type="Float32" NumberOfComponents="3" format="ascii">
0.000000e+00 9.432272e-01 0.000000e+00
0.000000e+00 1.070000e+00 0.000000e+00
4.936470e-02 9.419345e-01 0.000000e+00
5.599947e-02 1.068534e+00 0.000000e+00
4.936470e-02 9.419345e-01 0.000000e+00
5.599947e-02 1.068534e+00 0.000000e+00
9.859409e-02 9.380601e-01 0.000000e+00
1.118454e-01 1.064138e+00 0.000000e+00
9.859409e-02 9.380601e-01 0.000000e+00
1.118454e-01 1.064138e+00 0.000000e+00
1.475532e-01 9.316145e-01 0.000000e+00
1.673849e-01 1.056826e+00 0.000000e+00
1.475532e-01 9.316145e-01 0.000000e+00
1.673849e-01 1.056826e+00 0.000000e+00
1.961080e-01 9.226154e-01 0.000000e+00
2.224655e-01 1.046618e+00 0.000000e+00
1.961080e-01 9.226154e-01 0.000000e+00
2.224655e-01 1.046618e+00 0.000000e+00
2.441252e-01 9.110875e-01 0.000000e+00
2.769364e-01 1.033541e+00 0.000000e+00
2.441252e-01 9.110875e-01 0.000000e+00
2.769364e-01 1.033541e+00 0.000000e+00
2.914732e-01 8.970624e-01 0.000000e+00
3.306482e-01 1.017630e+00 0.000000e+00
2.914732e-01 8.970624e-01 0.000000e+00
3.306482e-01 1.017630e+00 0.000000e+00
3.380224e-01 8.805784e-01 0.000000e+00
3.834537e-01 9.989310e-01 0.000000e+00
3.380224e-01 8.805784e-01 0.000000e+00
3.834537e-01 9.989310e-01 0.000000e+00
3.836451e-01 8.616809e-01 0.000000e+00
4.352082e-01 9.774936e-01 0.000000e+00
3.836451e-01 8.616809e-01 0.000000e+00
4.352082e-01 9.774936e-01 0.000000e+00
4.282162e-01 8.404216e-01 0.000000e+00
4.857698e-01 9.533769e-01 0.000000e+00
4.282162e-01 8.404216e-01 0.000000e+00
4.857698e-01 9.533769e-01 0.000000e+00
4.716136e-01 8.168587e-01 0.000000e+00
5.350000e-01 9.266471e-01 0.000000e+00
4.716136e-01 8.168587e-01 0.000000e+00
5.350000e-01 9.266471e-01 0.000000e+00
5.137183e-01 7.910569e-01 0.000000e+00
5.827637e-01 8.973774e-01 0.000000e+00
5.137183e-01 7.910569e-01 0.000000e+00
5.827637e-01 8.973774e-01 0.000000e+00
5.544150e-01 7.630868e-01 0.000000e+00
6.289302e-01 8.656481e-01 0.000000e+00
5.544150e-01 7.630868e-01 0.000000e+00
6.289302e-01 8.656481e-01 0.000000e+00
5.935921e-01 7.330252e-01 0.000000e+00
6.733728e-01 8.315461e-01 0.000000e+00
5.935921e-01 7.330252e-01 0.000000e+00
6.733728e-01 8.315461e-01 0.000000e+00
6.311422e-01 7.009544e-01 0.000000e+00
7.159697e-01 7.951649e-01 0.000000e+00
6.311422e-01 7.009544e-01 0.000000e+00
7.159697e-01 7.951649e-01 0.000000e+00
6.669623e-01 6.669623e-01 0.000000e+00
7.566042e-01 7.566042e-01 0.000000e+00
6.669623e-01 6.669623e-01 0.000000e+00
7.566042e-01 7.566042e-01 0.000000e+00
7.009544e-01 6.311422e-01 0.000000e+00
7.951649e-01 7.159697e-01 0.000000e+00
7.009544e-01 6.311422e-01 0.000000e+00
7.951649e-01 7.159697e-01 0.000000e+00
7.330252e-01 5.935921e-01 0.000000e+00
8.315461e-01 6.733728e-01 0.000000e+00
7.330252e-01 5.935921e-01 0.000000e+00
8.315461e-01 6.733728e-01 0.000000e+00
7.630868e-01 5.544150e-01 0.000000e+00
8.656481e-01 6.289302e-01 0.000000e+00
7.630868e-01 5.544150e-01 0.000000e+00
8.656481e-01 6.289302e-01 0.000000e+00
7.910569e-01 5.137183e-01 0.000000e+00
8.973774e-01 5.827637e-01 0.000000e+00
7.910569e-01 5.137183e-01 0.000000e+00
8.973774e-01 5.827637e-01 0.000000e+00
8.168587e-01 4.716136e-01 0.000000e+00
9.266471e-01 5.350000e-01 0.000000e+00
8.168587e-01 4.716136e-01 0.000000e+00
9.266471e-01 5.350000e-01 0.000000e+00
8.404216e-01 4.282162e-01 0.000000e+00
9.533769e-01 4.857698e-01 0.000000e+00
8.404216e-01 4.282162e-01 0.000000e+00
9.533769e-01 4.857698e-01 0.000000e+00
8.616809e-01 3.836451e-01 0.000000e+00
9.774936e-01 4.352082e-01 0.000000e+00
8.616809e-01 3.836451e-01 0.000000e+00
9.774936e-01 4.352082e-01 0.000000e+00
8.805784e-01 3.380224e-01 0.000000e+00
9.989310e-01 3.834537e-01 0.000000e+00
8.805784e-01 3.380224e-01 0.000000e+00
9.989310e-01 3.834537e-01 0.000000e+00
8.970624e-01 2.914732e-01 0.000000e+00
1.017630e+00 3.306482e-01 0.000000e+00
8.970624e-01 2.914732e-01 0.000000e+00
1.017630e+00 3.306482e-01 0.000000e+00
9.110875e-01 2.441252e-01 0.000000e+00
1.033541e+00 2.769364e-01 0.000000e+00
9.110875e-01 2.441252e-01 0.000000e+00
1.033541e+00 2.769364e-01 0.000000e+00
9.226154e-01 1.961080e-01 0.000000e+00
1.046618e+00 2.224655e-01 0.000000e+00
9.226154e-01 1.961080e-01 0.000000e+00
1.046618e+00 2.224655e-01 0.000000e+00
9.316145e-01 1.475532e-01 0.000000e+00
1.056826e+00 1.673849e-01 0.000000e+00
9.316145e-01 1.475532e-01 0.000000e+00
1.056826e+00 1.673849e-01 0.000000e+00
9.380601e-01 9.859409e-02 0.000000e+00
1.064138e+00 1.118454e-01 0.000000e+00
9.380601e-01 9.859409e-02 0.000000e+00
1.064138e+00 1.118454e-01 0.000000e+00
9.419345e-01 4.936470e-02 0.000000e+00
1.068534e+00 5.599947e-02 0.000000e+00
9.419345e-01 4.936470e-02 0.000000e+00
1.068534e+00 5.599947e-02 0.000000e+00
9.432272e-01 4.618600e-12 0.000000e+00
1.070000e+00 5.239350e-12 0.000000e+00
</DataArray>
</Points>
<Cells>
<DataArray type="Int32" Name="connectivity" format="ascii">
0 1 3 2
4 5 7 6
8 9 11 10
12 13 15 14
16 17 19 18
20 21 23 22
24 25 27 26
28 29 31 30
32 33 35 34
36 37 39 38
40 41 43 42
44 45 47 46
48 49 51 50
52 53 55 54
56 57 59 58
60 61 63 62
64 65 67 66
68 69 71 70
72 73 75 74
76 77 79 78
80 81 83 82
84 85 87 86
88 89 91 90
92 93 95 94
96 97 99 98
100 101 103 102
104 105 107 106
108 109 111 110
112 113 115 114
116 117 119 118
</DataArray>
<DataArray type="Int32" Name="offsets" format="ascii">
4
8
12
16
20
24
28
32
36
40
44
48
52
56
60
64
68
72
76
80
84
88
92
96
100
104
108
112
116
120
</DataArray>
<DataArray type="UInt8" Name="types" format="ascii">
9
9
9
9
9
9
9
9
9
9
9
9
9
9
9
9
9
9
9
9
9
9
9
9
9
9
9
9
9
9
</DataArray>
</Cells>
<PointData>
<DataArray type="Float32" Name="V1" format="ascii">
3.435516e+00
3.140197e+00
3.435516e+00
3.140197e+00
3.435516e+00
3.140197e+00
3.435516e+00
3.140197e+00
3.435516e+00
3.140197e+00
3.435516e+00
3.140197e+00
3.435516e+00
3.140197e+00
3.435516e+00
3.140197e+00
3.435516e+00
3.140197e+00
3.435516e+00
3.140197e+00
3.435516e+00
3.140197e+00
3.435516e+00
3.140197e+00
3.435516e+00
3.140197e+00
3.435516e+00
3.140197e+00
3.435516e+00
3.140197e+00
3.435516e+00
3.140197e+00
3.435516e+00
3.140197e+00
3.435516e+00
3.140197e+00
3.435516e+00
3.140197e+00
3.435516e+00
3.140197e+00
3.435516e+00
3.140197e+00
3.435516e+00
3.140197e+00
3.435516e+00
3.140197e+00
3.435516e+00
3.140197e+00
3.435516e+00
3.140197e+00
3.435516e+00
3.140197e+00
3.435516e+00
3.140197e+00
3.435516e+00
3.140197e+00
3.435516e+00
3.140197e+00
3.435516e+00
3.140197e+00
3.435516e+00
3.140197e+00
3.435516e+00
3.140197e+00
3.435516e+00
3.140197e+00
3.435516e+00
3.140197e+00
3.435516e+00
3.140197e+00
3.435516e+00
3.140197e+00
3.435516e+00
3.140197e+00
3.435516e+00
3.140197e+00
3.435516e+00
3.140197e+00
3.435516e+00
3.140197e+00
3.435516e+00
3.140197e+00
3.435516e+00
3.140197e+00
3.435516e+00
3.140197e+00
3.435516e+00
3.140197e+00
3.435516e+00
3.140197e+00
3.435516e+00
3.140197e+00
3.435516e+00
3.140197e+00
3.435516e+00
3.140197e+00
3.435516e+00
3.140197e+00
3.435516e+00
3.140197e+00
3.435516e+00
3.140197e+00
3.435516e+00
3.140197e+00
3.435516e+00
3.140197e+00
3.435516e+00
3.140197e+00
3.435516e+00
3.140197e+00
3.435516e+00
3.140197e+00
3.435516e+00
3.140197e+00
3.435516e+00
3.140197e+00
3.435516e+00
3.140197e+00
3.435516e+00
3.140197e+00
</DataArray>
<DataArray type="Float32" Name="V2" format="ascii">
9.432272e-01
1.070000e+00
9.432272e-01
1.070000e+00
9.432272e-01
1.070000e+00
9.432272e-01
1.070000e+00
9.432272e-01
1.070000e+00
9.432272e-01
1.070000e+00
9.432272e-01
1.070000e+00
9.432272e-01
1.070000e+00
9.432272e-01
1.070000e+00
9.432272e-01
1.070000e+00
9.432272e-01
1.070000e+00
9.432272e-01
1.070000e+00
9.432272e-01
1.070000e+00
9.432272e-01
1.070000e+00
9.432272e-01
1.070000e+00
9.432272e-01
1.070000e+00
9.432272e-01
1.070000e+00
9.432272e-01
1.070000e+00
9.432272e-01
1.070000e+00
9.432272e-01
1.070000e+00
9.432272e-01
1.070000e+00
9.432272e-01
1.070000e+00
9.432272e-01
1.070000e+00
9.432272e-01
1.070000e+00
9.432272e-01
1.070000e+00
9.432272e-01
1.070000e+00
9.432272e-01
1.070000e+00
9.432272e-01
1.070000e+00
9.432272e-01
1.070000e+00
9.432272e-01
1.070000e+00
9.432272e-01
1.070000e+00
9.432272e-01
1.070000e+00
9.432272e-01
1.070000e+00
9.432272e-01
1.070000e+00
9.432272e-01
1.070000e+00
9.432272e-01
1.070000e+00
9.432272e-01
1.070000e+00
9.432272e-01
1.070000e+00
9.432272e-01
1.070000e+00
9.432272e-01
1.070000e+00
9.432272e-01
1.070000e+00
9.432272e-01
1.070000e+00
9.432272e-01
1.070000e+00
9.432272e-01
1.070000e+00
9.432272e-01
1.070000e+00
9.432272e-01
1.070000e+00
9.432272e-01
1.070000e+00
9.432272e-01
1.070000e+00
9.432272e-01
1.070000e+00
9.432272e-01
1.070000e+00
9.432272e-01
1.070000e+00
9.432272e-01
1.070000e+00
9.432272e-01
1.070000e+00
9.432272e-01
1.070000e+00
9.432272e-01
1.070000e+00
9.432272e-01
1.070000e+00
9.432272e-01
1.070000e+00
9.432272e-01
1.070000e+00
9.432272e-01
1.070000e+00
9.432272e-01
1.070000e+00
</DataArray>
<DataArray type="Float32" Name="V3" format="ascii">
0.000000e+00
0.000000e+00
6.999800e-13
-4.045640e-12
6.999800e-13
-4.045640e-12
1.482700e-13
-3.798300e-12
1.482700e-13
-3.798300e-12
4.057400e-13
-3.315310e-12
4.057400e-13
-3.315310e-12
6.049100e-13
-3.016500e-12
6.049100e-13
-3.016500e-12
7.111400e-13
-2.868180e-12
7.111400e-13
-2.868180e-12
7.821800e-13
-2.770000e-12
7.821800e-13
-2.770000e-12
8.108100e-13
-2.748210e-12
8.108100e-13
-2.748210e-12
8.375900e-13
-2.714100e-12
8.375900e-13
-2.714100e-12
8.380700e-13
-2.735380e-12
8.380700e-13
-2.735380e-12
8.404400e-13
-2.758250e-12
8.404400e-13
-2.758250e-12
8.246700e-13
-2.807110e-12
8.246700e-13
-2.807110e-12
7.880800e-13
-2.875440e-12
7.880800e-13
-2.875440e-12
7.569400e-13
-2.967070e-12
7.569400e-13
-2.967070e-12
7.311300e-13
-3.049430e-12
7.311300e-13
-3.049430e-12
6.728300e-13
-3.179040e-12
6.728300e-13
-3.179040e-12
6.103600e-13
-3.335070e-12
6.103600e-13
-3.335070e-12
5.512100e-13
-3.484430e-12
5.512100e-13
-3.484430e-12
4.570200e-13
-3.682590e-12
4.570200e-13
-3.682590e-12
3.484100e-13
-3.907640e-12
3.484100e-13
-3.907640e-12
2.312900e-13
-4.145780e-12
2.312900e-13
-4.145780e-12
8.258000e-14
-4.417000e-12
8.258000e-14
-4.417000e-12
-9.772000e-14
-4.719280e-12
-9.772000e-14
-4.719280e-12
-3.318400e-13
-5.064140e-12
-3.318400e-13
-5.064140e-12
-6.245600e-13
-5.429320e-12
-6.245600e-13
-5.429320e-12
-9.919800e-13
-5.811370e-12
-9.919800e-13
-5.811370e-12
-1.436200e-12
-6.171780e-12
-1.436200e-12
-6.171780e-12
-2.032240e-12
-6.494840e-12
-2.032240e-12
-6.494840e-12
-2.634170e-12
-6.536660e-12
-2.634170e-12
-6.536660e-12
-1.886660e-12
-4.978090e-12
-1.886660e-12
-4.978090e-12
0.000000e+00
0.000000e+00
</DataArray>
<DataArray type="Float32" Name="V4" format="ascii">
8.500000e-01
1.000000e+00
8.500000e-01
1.000000e+00
8.500000e-01
1.000000e+00
8.500000e-01
1.000000e+00
8.500000e-01
1.000000e+00
8.500000e-01
1.000000e+00
8.500000e-01
1.000000e+00
8.500000e-01
1.000000e+00
8.500000e-01
1.000000e+00
8.500000e-01
1.000000e+00
8.500000e-01
1.000000e+00
8.500000e-01
1.000000e+00
8.500000e-01
1.000000e+00
8.500000e-01
1.000000e+00
8.500000e-01
1.000000e+00
8.500000e-01
1.000000e+00
8.500000e-01
1.000000e+00
8.500000e-01
1.000000e+00
8.500000e-01
1.000000e+00
8.500000e-01
1.000000e+00
8.500000e-01
1.000000e+00
8.500000e-01
1.000000e+00
8.500000e-01
1.000000e+00
8.500000e-01
1.000000e+00
8.500000e-01
1.000000e+00
8.500000e-01
1.000000e+00
8.500000e-01
1.000000e+00
8.500000e-01
1.000000e+00
8.500000e-01
1.000000e+00
8.500000e-01
1.000000e+00
8.500000e-01
1.000000e+00
8.500000e-01
1.000000e+00
8.500000e-01
1.000000e+00
8.500000e-01
1.000000e+00
8.500000e-01
1.000000e+00
8.500000e-01
1.000000e+00
8.500000e-01
1.000000e+00
8.500000e-01
1.000000e+00
8.500000e-01
1.000000e+00
8.500000e-01
1.000000e+00
8.500000e-01
1.000000e+00
8.500000e-01
1.000000e+00
8.500000e-01
1.000000e+00
8.500000e-01
1.000000e+00
8.500000e-01
1.000000e+00
8.500000e-01
1.000000e+00
8.500000e-01
1.000000e+00
8.500000e-01
1.000000e+00
8.500000e-01
1.000000e+00
8.500000e-01
1.000000e+00
8.500000e-01
1.000000e+00
8.500000e-01
1.000000e+00
8.500000e-01
1.000000e+00
8.500000e-01
1.000000e+00
8.500000e-01
1.000000e+00
8.500000e-01
1.000000e+00
8.500000e-01
1.000000e+00
8.500000e-01
1.000000e+00
8.500000e-01
1.000000e+00
8.500000e-01
1.000000e+00
</DataArray>
<DataArray type="Float32" Name="V5" format="ascii">
0.000000e+00
0.000000e+00
5.235988e-02
5.235988e-02
5.235988e-02
5.235988e-02
1.047198e-01
1.047198e-01
1.047198e-01
1.047198e-01
1.570796e-01
1.570796e-01
1.570796e-01
1.570796e-01
2.094395e-01
2.094395e-01
2.094395e-01
2.094395e-01
2.617994e-01
2.617994e-01
2.617994e-01
2.617994e-01
3.141593e-01
3.141593e-01
3.141593e-01
3.141593e-01
3.665191e-01
3.665191e-01
3.665191e-01
3.665191e-01
4.188790e-01
4.188790e-01
4.188790e-01
4.188790e-01
4.712389e-01
4.712389e-01
4.712389e-01
4.712389e-01
5.235988e-01
5.235988e-01
5.235988e-01
5.235988e-01
5.759587e-01
5.759587e-01
5.759587e-01
5.759587e-01
6.283185e-01
6.283185e-01
6.283185e-01
6.283185e-01
6.806784e-01
6.806784e-01
6.806784e-01
6.806784e-01
7.330383e-01
7.330383e-01
7.330383e-01
7.330383e-01
7.853982e-01
7.853982e-01
7.853982e-01
7.853982e-01
8.377580e-01
8.377580e-01
8.377580e-01
8.377580e-01
8.901179e-01
8.901179e-01
8.901179e-01
8.901179e-01
9.424778e-01
9.424778e-01
9.424778e-01
9.424778e-01
9.948377e-01
9.948377e-01
9.948377e-01
9.948377e-01
1.047198e+00
1.047198e+00
1.047198e+00
1.047198e+00
1.099557e+00
1.099557e+00
1.099557e+00
1.099557e+00
1.151917e+00
1.151917e+00
1.151917e+00
1.151917e+00
1.204277e+00
1.204277e+00
1.204277e+00
1.204277e+00
1.256637e+00
1.256637e+00
1.256637e+00
1.256637e+00
1.308997e+00
1.308997e+00
1.308997e+00
1.308997e+00
1.361357e+00
1.361357e+00
1.361357e+00
1.361357e+00
1.413717e+00
1.413717e+00
1.413717e+00
1.413717e+00
1.466077e+00
1.466077e+00
1.466077e+00
1.466077e+00
1.518436e+00
1.518436e+00
1.518436e+00
1.518436e+00
1.570796e+00
1.570796e+00
</DataArray>
</PointData>
</Piece></UnstructuredGrid>
</VTKFile>
