<?xml version="1.0"?>
<VTKFile type="UnstructuredGrid" version="0.1" byte_order="LittleEndian" compressor="vtkZLibDataCompressor">
<UnstructuredGrid>
<Piece NumberOfPoints="120" NumberOfCells="30">
<Points>
<DataArray type="Float32" NumberOfComponents="3" format="ascii">
0.000000e+00 3.813864e-01 0.000000e+00
0.000000e+00 4.200000e-01 0.000000e+00
9.561346e-02 3.814296e-01 0.000000e+00
9.560561e-02 4.200000e-01 0.000000e+00
9.561346e-02 3.814296e-01 0.000000e+00
9.560561e-02 4.200000e-01 0.000000e+00
1.912178e-01 3.814743e-01 0.000000e+00
1.912020e-01 4.200000e-01 0.000000e+00
1.912178e-01 3.814743e-01 0.000000e+00
1.912020e-01 4.200000e-01 0.000000e+00
2.867990e-01 3.815472e-01 0.000000e+00
2.867749e-01 4.200000e-01 0.000000e+00
2.867990e-01 3.815472e-01 0.000000e+00
2.867749e-01 4.200000e-01 0.000000e+00
3.823452e-01 3.816490e-01 0.000000e+00
3.823128e-01 4.200000e-01 0.000000e+00
3.823452e-01 3.816490e-01 0.000000e+00
3.823128e-01 4.200000e-01 0.000000e+00
4.778446e-01 3.817796e-01 0.000000e+00
4.778034e-01 4.200000e-01 0.000000e+00
4.778446e-01 3.817796e-01 0.000000e+00
4.778034e-01 4.200000e-01 0.000000e+00
5.732845e-01 3.819385e-01 0.000000e+00
5.732341e-01 4.200000e-01 0.000000e+00
5.732845e-01 3.819385e-01 0.000000e+00
5.732341e-01 4.200000e-01 0.000000e+00
6.686519e-01 3.821254e-01 0.000000e+00
6.685918e-01 4.200000e-01 0.000000e+00
6.686519e-01 3.821254e-01 0.000000e+00
6.685918e-01 4.200000e-01 0.000000e+00
7.639329e-01 3.823397e-01 0.000000e+00
7.638625e-01 4.200000e-01 0.000000e+00
7.639329e-01 3.823397e-01 0.000000e+00
7.638625e-01 4.200000e-01 0.000000e+00
8.591127e-01 3.825808e-01 0.000000e+00
8.590315e-01 4.200000e-01 0.000000e+00
8.591127e-01 3.825808e-01 0.000000e+00
8.590315e-01 4.200000e-01 0.000000e+00
9.541758e-01 3.828482e-01 0.000000e+00
9.540831e-01 4.200000e-01 0.000000e+00
9.541758e-01 3.828482e-01 0.000000e+00
9.540831e-01 4.200000e-01 0.000000e+00
1.049105e+00 3.831411e-01 0.000000e+00
1.049001e+00 4.200000e-01 0.000000e+00
1.049105e+00 3.831411e-01 0.000000e+00
1.049001e+00 4.200000e-01 0.000000e+00
1.143883e+00 3.834587e-01 0.000000e+00
1.143767e+00 4.200000e-01 0.000000e+00
1.143883e+00 3.834587e-01 0.000000e+00
1.143767e+00 4.200000e-01 0.000000e+00
1.238488e+00 3.838000e-01 0.000000e+00
1.238364e+00 4.200000e-01 0.000000e+00
1.238488e+00 3.838000e-01 0.000000e+00
1.238364e+00 4.200000e-01 0.000000e+00
1.332899e+00 3.841638e-01 0.000000e+00
1.332772e+00 4.200000e-01 0.000000e+00
1.332899e+00 3.841638e-01 0.000000e+00
1.332772e+00 4.200000e-01 0.000000e+00
1.427091e+00 3.845484e-01 0.000000e+00
1.426972e+00 4.200000e-01 0.000000e+00
1.427091e+00 3.845484e-01 0.000000e+00
1.426972e+00 4.200000e-01 0.000000e+00
1.521034e+00 3.849515e-01 0.000000e+00
1.520946e+00 4.200000e-01 0.000000e+00
1.521034e+00 3.849515e-01 0.000000e+00
1.520946e+00 4.200000e-01 0.000000e+00
1.614695e+00 3.853689e-01 0.000000e+00
1.614682e+00 4.200000e-01 0.000000e+00
1.614695e+00 3.853689e-01 0.000000e+00
1.614682e+00 4.200000e-01 0.000000e+00
1.708027e+00 3.857940e-01 0.000000e+00
1.708174e+00 4.200000e-01 0.000000e+00
1.708027e+00 3.857940e-01 0.000000e+00
1.708174e+00 4.200000e-01 0.000000e+00
1.800973e+00 3.862165e-01 0.000000e+00
1.801439e+00 4.200000e-01 0.000000e+00
1.800973e+00 3.862165e-01 0.000000e+00
1.801439e+00 4.200000e-01 0.000000e+00
1.893447e+00 3.866241e-01 0.000000e+00
1.894538e+00 4.200000e-01 0.000000e+00
1.893447e+00 3.866241e-01 0.000000e+00
1.894538e+00 4.200000e-01 0.000000e+00
1.985319e+00 3.870146e-01 0.000000e+00
1.987624e+00 4.200000e-01 0.000000e+00
1.985319e+00 3.870146e-01 0.000000e+00
1.987624e+00 4.200000e-01 0.000000e+00
2.076349e+00 3.874327e-01 0.000000e+00
2.081017e+00 4.200000e-01 0.000000e+00
2.076349e+00 3.874327e-01 0.000000e+00
2.081017e+00 4.200000e-01 0.000000e+00
2.166125e+00 3.880442e-01 0.000000e+00
2.175431e+00 4.200000e-01 0.000000e+00
2.166125e+00 3.880442e-01 0.000000e+00
2.175431e+00 4.200000e-01 0.000000e+00
2.254911e+00 3.850865e-01 0.000000e+00
2.266992e+00 4.148146e-01 0.000000e+00
2.254911e+00 3.850865e-01 0.000000e+00
2.266992e+00 4.148146e-01 0.000000e+00
2.336368e+00 3.545132e-01 0.000000e+00
2.352321e+00 3.815174e-01 0.000000e+00
2.336368e+00 3.545132e-01 0.000000e+00
2.352321e+00 3.815174e-01 0.000000e+00
2.405283e+00 3.041682e-01 0.000000e+00
2.425917e+00 3.273045e-01 0.000000e+00
2.405283e+00 3.041682e-01 0.000000e+00
2.425917e+00 3.273045e-01 0.000000e+00
2.459716e+00 2.397135e-01 0.000000e+00
2.484456e+00 2.577437e-01 0.000000e+00
2.459716e+00 2.397135e-01 0.000000e+00
2.484456e+00 2.577437e-01 0.000000e+00
2.499218e+00 1.652600e-01 0.000000e+00
2.526854e+00 1.774676e-01 0.000000e+00
2.499218e+00 1.652600e-01 0.000000e+00
2.526854e+00 1.774676e-01 0.000000e+00
2.523290e+00 8.424993e-02 0.000000e+00
2.552583e+00 9.037311e-02 0.000000e+00
2.523290e+00 8.424993e-02 0.000000e+00
2.552583e+00 9.037311e-02 0.000000e+00
2.531378e+00 1.239512e-11 0.000000e+00
2.561206e+00 1.254117e-11 0.000000e+00
</DataArray>
</Points>
<Cells>
<DataArray type="Int32" Name="connectivity" format="ascii">
0 1 3 2
4 5 7 6
8 9 11 10
12 13 15 14
16 17 19 18
20 21 23 22
24 25 27 26
28 29 31 30
32 33 35 34
36 37 39 38
40 41 43 42
44 45 47 46
48 49 51 50
52 53 55 54
56 57 59 58
60 61 63 62
64 65 67 66
68 69 71 70
72 73 75 74
76 77 79 78
80 81 83 82
84 85 87 86
88 89 91 90
92 93 95 94
96 97 99 98
100 101 103 102
104 105 107 106
108 109 111 110
112 113 115 114
116 117 119 118
</DataArray>
<DataArray type="Int32" Name="offsets" format="ascii">
4
8
12
16
20
24
28
32
36
40
44
48
52
56
60
64
68
72
76
80
84
88
92
96
100
104
108
112
116
120
</DataArray>
<DataArray type="UInt8" Name="types" format="ascii">
9
9
9
9
9
9
9
9
9
9
9
9
9
9
9
9
9
9
9
9
9
9
9
9
9
9
9
9
9
9
</DataArray>
</Cells>
<PointData>
<DataArray type="Float32" Name="V1" format="ascii">
6.931497e+02
7.653308e+01
6.938441e+02
7.722750e+01
6.948016e+02
7.655613e+01
6.967544e+02
7.850896e+01
6.987084e+02
7.719314e+01
7.019775e+02
8.046225e+01
7.049501e+02
7.848267e+01
7.095659e+02
8.309845e+01
7.135905e+02
8.043602e+01
7.196075e+02
8.645296e+01
7.247275e+02
8.307644e+01
7.322180e+02
9.056698e+01
7.384901e+02
8.643658e+01
7.475456e+02
9.549206e+01
7.550411e+02
9.055876e+01
7.657742e+02
1.012919e+02
7.745803e+02
9.549616e+01
7.871284e+02
1.080443e+02
7.973500e+02
1.013145e+02
8.118792e+02
1.158438e+02
8.236402e+02
1.080945e+02
8.403508e+02
1.248051e+02
8.537952e+02
1.159349e+02
8.729286e+02
1.350683e+02
8.882210e+02
1.249572e+02
9.100694e+02
1.468055e+02
9.273921e+02
1.353129e+02
9.523116e+02
1.602324e+02
9.718562e+02
1.471941e+02
1.000287e+03
1.756248e+02
1.022234e+03
1.608517e+02
1.054729e+03
1.933472e+02
1.079204e+03
1.766270e+02
1.116477e+03
2.139002e+02
1.143465e+03
1.950098e+02
1.186456e+03
2.380010e+02
1.215639e+03
2.167545e+02
1.265606e+03
2.667215e+02
1.296081e+03
2.431367e+02
1.354662e+03
3.017175e+02
1.384500e+03
2.765629e+02
1.453551e+03
3.456145e+02
1.479156e+03
3.220719e+02
1.559817e+03
4.027327e+02
1.575188e+03
3.908608e+02
1.664706e+03
4.803784e+02
1.638372e+03
5.169807e+02
1.761275e+03
6.398843e+02
1.758601e+03
6.330667e+02
1.862643e+03
7.371087e+02
1.896684e+03
7.219341e+02
1.991838e+03
8.170883e+02
2.041751e+03
7.915113e+02
2.124016e+03
8.737767e+02
2.176498e+03
8.429553e+02
2.240237e+03
9.066945e+02
2.280764e+03
8.811402e+02
2.321334e+03
9.217100e+02
2.342474e+03
9.078219e+02
2.356404e+03
9.217516e+02
</DataArray>
<DataArray type="Float32" Name="V2" format="ascii">
3.813864e-01
4.200000e-01
3.859109e-01
4.244280e-01
3.859109e-01
4.244280e-01
3.993722e-01
4.376853e-01
3.993722e-01
4.376853e-01
4.217149e-01
4.596906e-01
4.217149e-01
4.596906e-01
4.528031e-01
4.903093e-01
4.528031e-01
4.903093e-01
4.924460e-01
5.293535e-01
4.924460e-01
5.293535e-01
5.403998e-01
5.765828e-01
5.403998e-01
5.765828e-01
5.963682e-01
6.317056e-01
5.963682e-01
6.317056e-01
6.600041e-01
6.943799e-01
6.600041e-01
6.943799e-01
7.309110e-01
7.642149e-01
7.309110e-01
7.642149e-01
8.086442e-01
8.407722e-01
8.086442e-01
8.407722e-01
8.927128e-01
9.235685e-01
8.927128e-01
9.235685e-01
9.825818e-01
1.012077e+00
9.825818e-01
1.012077e+00
1.077674e+00
1.105729e+00
1.077674e+00
1.105729e+00
1.177373e+00
1.203919e+00
1.177373e+00
1.203919e+00
1.281022e+00
1.306006e+00
1.281022e+00
1.306006e+00
1.387932e+00
1.411318e+00
1.387932e+00
1.411318e+00
1.497374e+00
1.519158e+00
1.497374e+00
1.519158e+00
1.608587e+00
1.628812e+00
1.608587e+00
1.628812e+00
1.720772e+00
1.739562e+00
1.720772e+00
1.739562e+00
1.833085e+00
1.850718e+00
1.833085e+00
1.850718e+00
1.944633e+00
1.961662e+00
1.944633e+00
1.961662e+00
2.054423e+00
2.071933e+00
2.054423e+00
2.071933e+00
2.161315e+00
2.181454e+00
2.161315e+00
2.181454e+00
2.263546e+00
2.284222e+00
2.263546e+00
2.284222e+00
2.348513e+00
2.370911e+00
2.348513e+00
2.370911e+00
2.415962e+00
2.440955e+00
2.415962e+00
2.440955e+00
2.466932e+00
2.494188e+00
2.466932e+00
2.494188e+00
2.502802e+00
2.531562e+00
2.502802e+00
2.531562e+00
2.524241e+00
2.553815e+00
2.524241e+00
2.553815e+00
2.531378e+00
2.561206e+00
</DataArray>
<DataArray type="Float32" Name="V3" format="ascii">
0.000000e+00
0.000000e+00
7.551995e-02
7.349348e-02
7.551995e-02
7.349348e-02
1.502954e-01
1.462527e-01
1.502954e-01
1.462527e-01
2.235809e-01
2.175418e-01
2.235809e-01
2.175418e-01
2.946408e-01
2.866354e-01
2.946408e-01
2.866354e-01
3.627506e-01
3.528186e-01
3.627506e-01
3.528186e-01
4.272005e-01
4.153909e-01
4.272005e-01
4.153909e-01
4.872988e-01
4.736696e-01
4.872988e-01
4.736696e-01
5.423758e-01
5.269937e-01
5.423758e-01
5.269937e-01
5.917870e-01
5.747266e-01
5.917870e-01
5.747266e-01
6.349164e-01
6.162602e-01
6.349164e-01
6.162602e-01
6.711800e-01
6.510178e-01
6.711800e-01
6.510178e-01
7.000290e-01
6.784574e-01
7.000290e-01
6.784574e-01
7.209527e-01
6.980750e-01
7.209527e-01
6.980750e-01
7.334813e-01
7.094076e-01
7.334813e-01
7.094076e-01
7.371888e-01
7.120366e-01
7.371888e-01
7.120366e-01
7.316960e-01
7.055909e-01
7.316960e-01
7.055909e-01
7.166724e-01
6.897509e-01
7.166724e-01
6.897509e-01
6.918393e-01
6.642524e-01
6.918393e-01
6.642524e-01
6.569717e-01
6.288923e-01
6.569717e-01
6.288923e-01
6.118973e-01
5.835382e-01
6.118973e-01
5.835382e-01
5.564833e-01
5.281397e-01
5.564833e-01
5.281397e-01
4.905899e-01
4.627369e-01
4.905899e-01
4.627369e-01
4.139994e-01
3.875008e-01
4.139994e-01
3.875008e-01
3.305667e-01
3.060270e-01
3.305667e-01
3.060270e-01
2.622631e-01
2.403079e-01
2.622631e-01
2.403079e-01
2.025650e-01
1.842243e-01
2.025650e-01
1.842243e-01
1.480221e-01
1.340840e-01
1.480221e-01
1.340840e-01
9.688476e-02
8.763275e-02
9.688476e-02
8.763275e-02
4.792431e-02
4.334264e-02
4.792431e-02
4.334264e-02
0.000000e+00
0.000000e+00
</DataArray>
<DataArray type="Float32" Name="V4" format="ascii">
8.500000e-01
1.000000e+00
8.500000e-01
1.000000e+00
8.500000e-01
1.000000e+00
8.500000e-01
1.000000e+00
8.500000e-01
1.000000e+00
8.500000e-01
1.000000e+00
8.500000e-01
1.000000e+00
8.500000e-01
1.000000e+00
8.500000e-01
1.000000e+00
8.500000e-01
1.000000e+00
8.500000e-01
1.000000e+00
8.500000e-01
1.000000e+00
8.500000e-01
1.000000e+00
8.500000e-01
1.000000e+00
8.500000e-01
1.000000e+00
8.500000e-01
1.000000e+00
8.500000e-01
1.000000e+00
8.500000e-01
1.000000e+00
8.500000e-01
1.000000e+00
8.500000e-01
1.000000e+00
8.500000e-01
1.000000e+00
8.500000e-01
1.000000e+00
8.500000e-01
1.000000e+00
8.500000e-01
1.000000e+00
8.500000e-01
1.000000e+00
8.500000e-01
1.000000e+00
8.500000e-01
1.000000e+00
8.500000e-01
1.000000e+00
8.500000e-01
1.000000e+00
8.500000e-01
1.000000e+00
8.500000e-01
1.000000e+00
8.500000e-01
1.000000e+00
8.500000e-01
1.000000e+00
8.500000e-01
1.000000e+00
8.500000e-01
1.000000e+00
8.500000e-01
1.000000e+00
8.500000e-01
1.000000e+00
8.500000e-01
1.000000e+00
8.500000e-01
1.000000e+00
8.500000e-01
1.000000e+00
8.500000e-01
1.000000e+00
8.500000e-01
1.000000e+00
8.500000e-01
1.000000e+00
8.500000e-01
1.000000e+00
8.500000e-01
1.000000e+00
8.500000e-01
1.000000e+00
8.500000e-01
1.000000e+00
8.500000e-01
1.000000e+00
8.500000e-01
1.000000e+00
8.500000e-01
1.000000e+00
8.500000e-01
1.000000e+00
8.500000e-01
1.000000e+00
8.500000e-01
1.000000e+00
8.500000e-01
1.000000e+00
8.500000e-01
1.000000e+00
8.500000e-01
1.000000e+00
8.500000e-01
1.000000e+00
8.500000e-01
1.000000e+00
8.500000e-01
1.000000e+00
8.500000e-01
1.000000e+00
</DataArray>
<DataArray type="Float32" Name="V5" format="ascii">
0.000000e+00
0.000000e+00
5.235988e-02
5.235988e-02
5.235988e-02
5.235988e-02
1.047198e-01
1.047198e-01
1.047198e-01
1.047198e-01
1.570796e-01
1.570796e-01
1.570796e-01
1.570796e-01
2.094395e-01
2.094395e-01
2.094395e-01
2.094395e-01
2.617994e-01
2.617994e-01
2.617994e-01
2.617994e-01
3.141593e-01
3.141593e-01
3.141593e-01
3.141593e-01
3.665191e-01
3.665191e-01
3.665191e-01
3.665191e-01
4.188790e-01
4.188790e-01
4.188790e-01
4.188790e-01
4.712389e-01
4.712389e-01
4.712389e-01
4.712389e-01
5.235988e-01
5.235988e-01
5.235988e-01
5.235988e-01
5.759587e-01
5.759587e-01
5.759587e-01
5.759587e-01
6.283185e-01
6.283185e-01
6.283185e-01
6.283185e-01
6.806784e-01
6.806784e-01
6.806784e-01
6.806784e-01
7.330383e-01
7.330383e-01
7.330383e-01
7.330383e-01
7.853982e-01
7.853982e-01
7.853982e-01
7.853982e-01
8.377580e-01
8.377580e-01
8.377580e-01
8.377580e-01
8.901179e-01
8.901179e-01
8.901179e-01
8.901179e-01
9.424778e-01
9.424778e-01
9.424778e-01
9.424778e-01
9.948377e-01
9.948377e-01
9.948377e-01
9.948377e-01
1.047198e+00
1.047198e+00
1.047198e+00
1.047198e+00
1.099557e+00
1.099557e+00
1.099557e+00
1.099557e+00
1.151917e+00
1.151917e+00
1.151917e+00
1.151917e+00
1.204277e+00
1.204277e+00
1.204277e+00
1.204277e+00
1.256637e+00
1.256637e+00
1.256637e+00
1.256637e+00
1.308997e+00
1.308997e+00
1.308997e+00
1.308997e+00
1.361357e+00
1.361357e+00
1.361357e+00
1.361357e+00
1.413717e+00
1.413717e+00
1.413717e+00
1.413717e+00
1.466077e+00
1.466077e+00
1.466077e+00
1.466077e+00
1.518436e+00
1.518436e+00
1.518436e+00
1.518436e+00
1.570796e+00
1.570796e+00
</DataArray>
</PointData>
</Piece></UnstructuredGrid>
</VTKFile>
