<?xml version="1.0"?>
<VTKFile type="UnstructuredGrid" version="0.1" byte_order="LittleEndian" compressor="vtkZLibDataCompressor">
<UnstructuredGrid>
<Piece NumberOfPoints="120" NumberOfCells="30">
<Points>
<DataArray type="Float32" NumberOfComponents="3" format="ascii">
0.000000e+00 9.428537e-01 0.000000e+00
0.000000e+00 1.050000e+00 0.000000e+00
5.687642e-02 9.429710e-01 0.000000e+00
5.794063e-02 1.050000e+00 0.000000e+00
5.687642e-02 9.429710e-01 0.000000e+00
5.794063e-02 1.050000e+00 0.000000e+00
1.135244e-01 9.432296e-01 0.000000e+00
1.161415e-01 1.050000e+00 0.000000e+00
1.135244e-01 9.432296e-01 0.000000e+00
1.161415e-01 1.050000e+00 0.000000e+00
1.696297e-01 9.434897e-01 0.000000e+00
1.748412e-01 1.050000e+00 0.000000e+00
1.696297e-01 9.434897e-01 0.000000e+00
1.748412e-01 1.050000e+00 0.000000e+00
2.247584e-01 9.432393e-01 0.000000e+00
2.340800e-01 1.050000e+00 0.000000e+00
2.247584e-01 9.432393e-01 0.000000e+00
2.340800e-01 1.050000e+00 0.000000e+00
2.791132e-01 9.417195e-01 0.000000e+00
2.930649e-01 1.049270e+00 0.000000e+00
2.791132e-01 9.417195e-01 0.000000e+00
2.930649e-01 1.049270e+00 0.000000e+00
3.325069e-01 9.362055e-01 0.000000e+00
3.516863e-01 1.042718e+00 0.000000e+00
3.325069e-01 9.362055e-01 0.000000e+00
3.516863e-01 1.042718e+00 0.000000e+00
3.846866e-01 9.268297e-01 0.000000e+00
4.102033e-01 1.031442e+00 0.000000e+00
3.846866e-01 9.268297e-01 0.000000e+00
4.102033e-01 1.031442e+00 0.000000e+00
4.358870e-01 9.134650e-01 0.000000e+00
4.680377e-01 1.015755e+00 0.000000e+00
4.358870e-01 9.134650e-01 0.000000e+00
4.680377e-01 1.015755e+00 0.000000e+00
4.860386e-01 8.963619e-01 0.000000e+00
5.247377e-01 9.959426e-01 0.000000e+00
4.860386e-01 8.963619e-01 0.000000e+00
5.247377e-01 9.959426e-01 0.000000e+00
5.349986e-01 8.757393e-01 0.000000e+00
5.799845e-01 9.722764e-01 0.000000e+00
5.349986e-01 8.757393e-01 0.000000e+00
5.799845e-01 9.722764e-01 0.000000e+00
5.826071e-01 8.518099e-01 0.000000e+00
6.335499e-01 9.450158e-01 0.000000e+00
5.826071e-01 8.518099e-01 0.000000e+00
6.335499e-01 9.450158e-01 0.000000e+00
6.287044e-01 8.247744e-01 0.000000e+00
6.852552e-01 9.143986e-01 0.000000e+00
6.287044e-01 8.247744e-01 0.000000e+00
6.852552e-01 9.143986e-01 0.000000e+00
6.731381e-01 7.948233e-01 0.000000e+00
7.349505e-01 8.806429e-01 0.000000e+00
6.731381e-01 7.948233e-01 0.000000e+00
7.349505e-01 8.806429e-01 0.000000e+00
7.157657e-01 7.621373e-01 0.000000e+00
7.825036e-01 8.439502e-01 0.000000e+00
7.157657e-01 7.621373e-01 0.000000e+00
7.825036e-01 8.439502e-01 0.000000e+00
7.564545e-01 7.268897e-01 0.000000e+00
8.277935e-01 8.045098e-01 0.000000e+00
7.564545e-01 7.268897e-01 0.000000e+00
8.277935e-01 8.045098e-01 0.000000e+00
7.950817e-01 6.892478e-01 0.000000e+00
8.707080e-01 7.625020e-01 0.000000e+00
7.950817e-01 6.892478e-01 0.000000e+00
8.707080e-01 7.625020e-01 0.000000e+00
8.315335e-01 6.493748e-01 0.000000e+00
9.111419e-01 7.181010e-01 0.000000e+00
8.315335e-01 6.493748e-01 0.000000e+00
9.111419e-01 7.181010e-01 0.000000e+00
8.657048e-01 6.074305e-01 0.000000e+00
9.489960e-01 6.714774e-01 0.000000e+00
8.657048e-01 6.074305e-01 0.000000e+00
9.489960e-01 6.714774e-01 0.000000e+00
8.974988e-01 5.635732e-01 0.000000e+00
9.841778e-01 6.227995e-01 0.000000e+00
8.974988e-01 5.635732e-01 0.000000e+00
9.841778e-01 6.227995e-01 0.000000e+00
9.268265e-01 5.179601e-01 0.000000e+00
1.016601e+00 5.722345e-01 0.000000e+00
9.268265e-01 5.179601e-01 0.000000e+00
1.016601e+00 5.722345e-01 0.000000e+00
9.536069e-01 4.707479e-01 0.000000e+00
1.046185e+00 5.199499e-01 0.000000e+00
9.536069e-01 4.707479e-01 0.000000e+00
1.046185e+00 5.199499e-01 0.000000e+00
9.777665e-01 4.220938e-01 0.000000e+00
1.072857e+00 4.661132e-01 0.000000e+00
9.777665e-01 4.220938e-01 0.000000e+00
1.072857e+00 4.661132e-01 0.000000e+00
9.992394e-01 3.721551e-01 0.000000e+00
1.096550e+00 4.108932e-01 0.000000e+00
9.992394e-01 3.721551e-01 0.000000e+00
1.096550e+00 4.108932e-01 0.000000e+00
1.017968e+00 3.210901e-01 0.000000e+00
1.117206e+00 3.544593e-01 0.000000e+00
1.017968e+00 3.210901e-01 0.000000e+00
1.117206e+00 3.544593e-01 0.000000e+00
1.033900e+00 2.690577e-01 0.000000e+00
1.134773e+00 2.969825e-01 0.000000e+00
1.033900e+00 2.690577e-01 0.000000e+00
1.134773e+00 2.969825e-01 0.000000e+00
1.046995e+00 2.162176e-01 0.000000e+00
1.149207e+00 2.386344e-01 0.000000e+00
1.046995e+00 2.162176e-01 0.000000e+00
1.149207e+00 2.386344e-01 0.000000e+00
1.057216e+00 1.627304e-01 0.000000e+00
1.160471e+00 1.795880e-01 0.000000e+00
1.057216e+00 1.627304e-01 0.000000e+00
1.160471e+00 1.795880e-01 0.000000e+00
1.064537e+00 1.087572e-01 0.000000e+00
1.168537e+00 1.200171e-01 0.000000e+00
1.064537e+00 1.087572e-01 0.000000e+00
1.168537e+00 1.200171e-01 0.000000e+00
1.068937e+00 5.445972e-02 0.000000e+00
1.173384e+00 6.009615e-02 0.000000e+00
1.068937e+00 5.445972e-02 0.000000e+00
1.173384e+00 6.009615e-02 0.000000e+00
1.070405e+00 5.241330e-12 0.000000e+00
1.175002e+00 5.753500e-12 0.000000e+00
</DataArray>
</Points>
<Cells>
<DataArray type="Int32" Name="connectivity" format="ascii">
0 1 3 2
4 5 7 6
8 9 11 10
12 13 15 14
16 17 19 18
20 21 23 22
24 25 27 26
28 29 31 30
32 33 35 34
36 37 39 38
40 41 43 42
44 45 47 46
48 49 51 50
52 53 55 54
56 57 59 58
60 61 63 62
64 65 67 66
68 69 71 70
72 73 75 74
76 77 79 78
80 81 83 82
84 85 87 86
88 89 91 90
92 93 95 94
96 97 99 98
100 101 103 102
104 105 107 106
108 109 111 110
112 113 115 114
116 117 119 118
</DataArray>
<DataArray type="Int32" Name="offsets" format="ascii">
4
8
12
16
20
24
28
32
36
40
44
48
52
56
60
64
68
72
76
80
84
88
92
96
100
104
108
112
116
120
</DataArray>
<DataArray type="UInt8" Name="types" format="ascii">
9
9
9
9
9
9
9
9
9
9
9
9
9
9
9
9
9
9
9
9
9
9
9
9
9
9
9
9
9
9
</DataArray>
</Cells>
<PointData>
<DataArray type="Float32" Name="V1" format="ascii">
1.228967e+01
4.113095e-01
1.232080e+01
4.424386e-01
1.211858e+01
5.725686e-01
1.219064e+01
6.446230e-01
1.170767e+01
9.811227e-01
1.187482e+01
1.148275e+00
1.092118e+01
1.839048e+00
1.132114e+01
2.239002e+00
9.638053e+00
3.679431e+00
1.033994e+01
4.381320e+00
8.957883e+00
5.506677e+00
9.250081e+00
5.798874e+00
8.692096e+00
6.187606e+00
8.856485e+00
6.351995e+00
8.599118e+00
6.558666e+00
8.744339e+00
6.703887e+00
8.639211e+00
6.790744e+00
8.768894e+00
6.920427e+00
8.740470e+00
6.944136e+00
8.854584e+00
7.058250e+00
8.865559e+00
7.049529e+00
8.965165e+00
7.149135e+00
8.994980e+00
7.125028e+00
9.081558e+00
7.211606e+00
9.119113e+00
7.181302e+00
9.194241e+00
7.256430e+00
9.233595e+00
7.224793e+00
9.298760e+00
7.289958e+00
9.336849e+00
7.259455e+00
9.393383e+00
7.315989e+00
9.428738e+00
7.287776e+00
9.477792e+00
7.336831e+00
9.509815e+00
7.311358e+00
9.552377e+00
7.353920e+00
9.580936e+00
7.331266e+00
9.617839e+00
7.368170e+00
9.643037e+00
7.348230e+00
9.674987e+00
7.380180e+00
9.697035e+00
7.362768e+00
9.724624e+00
7.390357e+00
9.743774e+00
7.375261e+00
9.767499e+00
7.398986e+00
9.784004e+00
7.385995e+00
9.804282e+00
7.406273e+00
9.818376e+00
7.395193e+00
9.835553e+00
7.412371e+00
9.847447e+00
7.403031e+00
9.861812e+00
7.417396e+00
9.871686e+00
7.409649e+00
9.883475e+00
7.421437e+00
9.891481e+00
7.415160e+00
9.900883e+00
7.424561e+00
9.907145e+00
7.419655e+00
9.914309e+00
7.426819e+00
9.918923e+00
7.423204e+00
9.923962e+00
7.428244e+00
9.926999e+00
7.425865e+00
9.929992e+00
7.428858e+00
9.931499e+00
7.427678e+00
9.932491e+00
7.428670e+00
</DataArray>
<DataArray type="Float32" Name="V2" format="ascii">
9.428537e-01
1.050000e+00
9.446554e-01
1.051593e+00
9.446554e-01
1.051593e+00
9.499290e-01
1.056388e+00
9.499290e-01
1.056388e+00
9.584097e-01
1.064424e+00
9.584097e-01
1.064424e+00
9.693571e-01
1.075723e+00
9.693571e-01
1.075723e+00
9.818710e-01
1.089368e+00
9.818710e-01
1.089368e+00
9.931347e-01
1.100361e+00
9.931347e-01
1.100361e+00
1.003129e+00
1.109938e+00
1.003129e+00
1.109938e+00
1.011783e+00
1.118306e+00
1.011783e+00
1.118306e+00
1.019321e+00
1.125617e+00
1.019321e+00
1.125617e+00
1.025912e+00
1.132008e+00
1.025912e+00
1.132008e+00
1.031698e+00
1.137613e+00
1.031698e+00
1.137613e+00
1.036800e+00
1.142547e+00
1.036800e+00
1.142547e+00
1.041313e+00
1.146907e+00
1.041313e+00
1.146907e+00
1.045319e+00
1.150774e+00
1.045319e+00
1.150774e+00
1.048883e+00
1.154213e+00
1.048883e+00
1.154213e+00
1.052058e+00
1.157276e+00
1.052058e+00
1.157276e+00
1.054888e+00
1.160006e+00
1.054888e+00
1.160006e+00
1.057409e+00
1.162438e+00
1.057409e+00
1.162438e+00
1.059650e+00
1.164602e+00
1.059650e+00
1.164602e+00
1.061635e+00
1.166519e+00
1.061635e+00
1.166519e+00
1.063385e+00
1.168210e+00
1.063385e+00
1.168210e+00
1.064915e+00
1.169689e+00
1.064915e+00
1.169689e+00
1.066239e+00
1.170969e+00
1.066239e+00
1.170969e+00
1.067367e+00
1.172060e+00
1.067367e+00
1.172060e+00
1.068308e+00
1.172971e+00
1.068308e+00
1.172971e+00
1.069070e+00
1.173709e+00
1.069070e+00
1.173709e+00
1.069657e+00
1.174277e+00
1.069657e+00
1.174277e+00
1.070073e+00
1.174680e+00
1.070073e+00
1.174680e+00
1.070322e+00
1.174922e+00
1.070322e+00
1.174922e+00
1.070405e+00
1.175002e+00
</DataArray>
<DataArray type="Float32" Name="V3" format="ascii">
0.000000e+00
0.000000e+00
7.447189e-03
2.908466e-03
7.447189e-03
2.908466e-03
1.430814e-02
5.750385e-03
1.430814e-02
5.750385e-03
1.994696e-02
8.432380e-03
1.994696e-02
8.432380e-03
2.373642e-02
1.065754e-02
2.373642e-02
1.065754e-02
2.586771e-02
1.150787e-02
2.586771e-02
1.150787e-02
2.692942e-02
1.225608e-02
2.692942e-02
1.225608e-02
2.698983e-02
1.332201e-02
2.698983e-02
1.332201e-02
2.666293e-02
1.442905e-02
2.666293e-02
1.442905e-02
2.612376e-02
1.539625e-02
2.612376e-02
1.539625e-02
2.545274e-02
1.614313e-02
2.545274e-02
1.614313e-02
2.468653e-02
1.664718e-02
2.468653e-02
1.664718e-02
2.384227e-02
1.691307e-02
2.384227e-02
1.691307e-02
2.292809e-02
1.695729e-02
2.292809e-02
1.695729e-02
2.194823e-02
1.680052e-02
2.194823e-02
1.680052e-02
2.090554e-02
1.646403e-02
2.090554e-02
1.646403e-02
1.980257e-02
1.596797e-02
1.980257e-02
1.596797e-02
1.864203e-02
1.533082e-02
1.864203e-02
1.533082e-02
1.742693e-02
1.456921e-02
1.742693e-02
1.456921e-02
1.616060e-02
1.369805e-02
1.616060e-02
1.369805e-02
1.484666e-02
1.273071e-02
1.484666e-02
1.273071e-02
1.348898e-02
1.167922e-02
1.348898e-02
1.167922e-02
1.209157e-02
1.055452e-02
1.209157e-02
1.055452e-02
1.065863e-02
9.366646e-03
1.065863e-02
9.366646e-03
9.194430e-03
8.124869e-03
9.194430e-03
8.124869e-03
7.703327e-03
6.837865e-03
7.703327e-03
6.837865e-03
6.189735e-03
5.513830e-03
6.189735e-03
5.513830e-03
4.658113e-03
4.160582e-03
4.658113e-03
4.160582e-03
3.112944e-03
2.785661e-03
3.112944e-03
2.785661e-03
1.558734e-03
1.396400e-03
1.558734e-03
1.396400e-03
0.000000e+00
0.000000e+00
</DataArray>
<DataArray type="Float32" Name="V4" format="ascii">
8.500000e-01
1.000000e+00
8.500000e-01
1.000000e+00
8.500000e-01
1.000000e+00
8.500000e-01
1.000000e+00
8.500000e-01
1.000000e+00
8.500000e-01
1.000000e+00
8.500000e-01
1.000000e+00
8.500000e-01
1.000000e+00
8.500000e-01
1.000000e+00
8.500000e-01
1.000000e+00
8.500000e-01
1.000000e+00
8.500000e-01
1.000000e+00
8.500000e-01
1.000000e+00
8.500000e-01
1.000000e+00
8.500000e-01
1.000000e+00
8.500000e-01
1.000000e+00
8.500000e-01
1.000000e+00
8.500000e-01
1.000000e+00
8.500000e-01
1.000000e+00
8.500000e-01
1.000000e+00
8.500000e-01
1.000000e+00
8.500000e-01
1.000000e+00
8.500000e-01
1.000000e+00
8.500000e-01
1.000000e+00
8.500000e-01
1.000000e+00
8.500000e-01
1.000000e+00
8.500000e-01
1.000000e+00
8.500000e-01
1.000000e+00
8.500000e-01
1.000000e+00
8.500000e-01
1.000000e+00
8.500000e-01
1.000000e+00
8.500000e-01
1.000000e+00
8.500000e-01
1.000000e+00
8.500000e-01
1.000000e+00
8.500000e-01
1.000000e+00
8.500000e-01
1.000000e+00
8.500000e-01
1.000000e+00
8.500000e-01
1.000000e+00
8.500000e-01
1.000000e+00
8.500000e-01
1.000000e+00
8.500000e-01
1.000000e+00
8.500000e-01
1.000000e+00
8.500000e-01
1.000000e+00
8.500000e-01
1.000000e+00
8.500000e-01
1.000000e+00
8.500000e-01
1.000000e+00
8.500000e-01
1.000000e+00
8.500000e-01
1.000000e+00
8.500000e-01
1.000000e+00
8.500000e-01
1.000000e+00
8.500000e-01
1.000000e+00
8.500000e-01
1.000000e+00
8.500000e-01
1.000000e+00
8.500000e-01
1.000000e+00
8.500000e-01
1.000000e+00
8.500000e-01
1.000000e+00
8.500000e-01
1.000000e+00
8.500000e-01
1.000000e+00
8.500000e-01
1.000000e+00
8.500000e-01
1.000000e+00
</DataArray>
<DataArray type="Float32" Name="V5" format="ascii">
0.000000e+00
0.000000e+00
5.235988e-02
5.235988e-02
5.235988e-02
5.235988e-02
1.047198e-01
1.047198e-01
1.047198e-01
1.047198e-01
1.570796e-01
1.570796e-01
1.570796e-01
1.570796e-01
2.094395e-01
2.094395e-01
2.094395e-01
2.094395e-01
2.617994e-01
2.617994e-01
2.617994e-01
2.617994e-01
3.141593e-01
3.141593e-01
3.141593e-01
3.141593e-01
3.665191e-01
3.665191e-01
3.665191e-01
3.665191e-01
4.188790e-01
4.188790e-01
4.188790e-01
4.188790e-01
4.712389e-01
4.712389e-01
4.712389e-01
4.712389e-01
5.235988e-01
5.235988e-01
5.235988e-01
5.235988e-01
5.759587e-01
5.759587e-01
5.759587e-01
5.759587e-01
6.283185e-01
6.283185e-01
6.283185e-01
6.283185e-01
6.806784e-01
6.806784e-01
6.806784e-01
6.806784e-01
7.330383e-01
7.330383e-01
7.330383e-01
7.330383e-01
7.853982e-01
7.853982e-01
7.853982e-01
7.853982e-01
8.377580e-01
8.377580e-01
8.377580e-01
8.377580e-01
8.901179e-01
8.901179e-01
8.901179e-01
8.901179e-01
9.424778e-01
9.424778e-01
9.424778e-01
9.424778e-01
9.948377e-01
9.948377e-01
9.948377e-01
9.948377e-01
1.047198e+00
1.047198e+00
1.047198e+00
1.047198e+00
1.099557e+00
1.099557e+00
1.099557e+00
1.099557e+00
1.151917e+00
1.151917e+00
1.151917e+00
1.151917e+00
1.204277e+00
1.204277e+00
1.204277e+00
1.204277e+00
1.256637e+00
1.256637e+00
1.256637e+00
1.256637e+00
1.308997e+00
1.308997e+00
1.308997e+00
1.308997e+00
1.361357e+00
1.361357e+00
1.361357e+00
1.361357e+00
1.413717e+00
1.413717e+00
1.413717e+00
1.413717e+00
1.466077e+00
1.466077e+00
1.466077e+00
1.466077e+00
1.518436e+00
1.518436e+00
1.518436e+00
1.518436e+00
1.570796e+00
1.570796e+00
</DataArray>
</PointData>
</Piece></UnstructuredGrid>
</VTKFile>
