<?xml version="1.0"?>
<VTKFile type="UnstructuredGrid" version="0.1" byte_order="LittleEndian" compressor="vtkZLibDataCompressor">
<UnstructuredGrid>
<Piece NumberOfPoints="120" NumberOfCells="30">
<Points>
<DataArray type="Float32" NumberOfComponents="3" format="ascii">
0.000000e+00 5.727883e-01 0.000000e+00
0.000000e+00 6.600000e-01 0.000000e+00
6.363808e-02 5.728354e-01 0.000000e+00
6.355736e-02 6.600000e-01 0.000000e+00
6.363808e-02 5.728354e-01 0.000000e+00
6.355736e-02 6.600000e-01 0.000000e+00
1.272720e-01 5.729412e-01 0.000000e+00
1.271097e-01 6.600000e-01 0.000000e+00
1.272720e-01 5.729412e-01 0.000000e+00
1.271097e-01 6.600000e-01 0.000000e+00
1.908946e-01 5.731174e-01 0.000000e+00
1.906530e-01 6.600000e-01 0.000000e+00
1.908946e-01 5.731174e-01 0.000000e+00
1.906530e-01 6.600000e-01 0.000000e+00
2.545002e-01 5.733632e-01 0.000000e+00
2.541822e-01 6.600000e-01 0.000000e+00
2.545002e-01 5.733632e-01 0.000000e+00
2.541822e-01 6.600000e-01 0.000000e+00
3.180818e-01 5.736779e-01 0.000000e+00
3.176931e-01 6.600000e-01 0.000000e+00
3.180818e-01 5.736779e-01 0.000000e+00
3.176931e-01 6.600000e-01 0.000000e+00
3.816318e-01 5.740607e-01 0.000000e+00
3.811822e-01 6.600000e-01 0.000000e+00
3.816318e-01 5.740607e-01 0.000000e+00
3.811822e-01 6.600000e-01 0.000000e+00
4.451401e-01 5.745106e-01 0.000000e+00
4.446479e-01 6.600000e-01 0.000000e+00
4.451401e-01 5.745106e-01 0.000000e+00
4.446479e-01 6.600000e-01 0.000000e+00
5.085938e-01 5.750274e-01 0.000000e+00
5.080928e-01 6.600000e-01 0.000000e+00
5.085938e-01 5.750274e-01 0.000000e+00
5.080928e-01 6.600000e-01 0.000000e+00
5.719742e-01 5.756115e-01 0.000000e+00
5.715280e-01 6.600000e-01 0.000000e+00
5.719742e-01 5.756115e-01 0.000000e+00
5.715280e-01 6.600000e-01 0.000000e+00
6.352524e-01 5.762651e-01 0.000000e+00
6.349810e-01 6.600000e-01 0.000000e+00
6.352524e-01 5.762651e-01 0.000000e+00
6.349810e-01 6.600000e-01 0.000000e+00
6.983806e-01 5.769924e-01 0.000000e+00
6.985103e-01 6.600000e-01 0.000000e+00
6.983806e-01 5.769924e-01 0.000000e+00
6.985103e-01 6.600000e-01 0.000000e+00
7.612744e-01 5.777987e-01 0.000000e+00
7.622285e-01 6.600000e-01 0.000000e+00
7.612744e-01 5.777987e-01 0.000000e+00
7.622285e-01 6.600000e-01 0.000000e+00
8.237775e-01 5.786832e-01 0.000000e+00
8.263354e-01 6.600000e-01 0.000000e+00
8.237775e-01 5.786832e-01 0.000000e+00
8.263354e-01 6.600000e-01 0.000000e+00
8.855886e-01 5.796007e-01 0.000000e+00
8.911354e-01 6.600000e-01 0.000000e+00
8.855886e-01 5.796007e-01 0.000000e+00
8.911354e-01 6.600000e-01 0.000000e+00
9.461257e-01 5.802662e-01 0.000000e+00
9.568966e-01 6.600000e-01 0.000000e+00
9.461257e-01 5.802662e-01 0.000000e+00
9.568966e-01 6.600000e-01 0.000000e+00
1.005204e+00 5.801438e-01 0.000000e+00
1.022131e+00 6.596312e-01 0.000000e+00
1.005204e+00 5.801438e-01 0.000000e+00
1.022131e+00 6.596312e-01 0.000000e+00
1.062587e+00 5.726189e-01 0.000000e+00
1.085500e+00 6.493967e-01 0.000000e+00
1.062587e+00 5.726189e-01 0.000000e+00
1.085500e+00 6.493967e-01 0.000000e+00
1.116998e+00 5.567676e-01 0.000000e+00
1.147456e+00 6.296702e-01 0.000000e+00
1.116998e+00 5.567676e-01 0.000000e+00
1.147456e+00 6.296702e-01 0.000000e+00
1.168218e+00 5.333047e-01 0.000000e+00
1.206405e+00 6.014077e-01 0.000000e+00
1.168218e+00 5.333047e-01 0.000000e+00
1.206405e+00 6.014077e-01 0.000000e+00
1.215849e+00 5.031903e-01 0.000000e+00
1.261200e+00 5.657599e-01 0.000000e+00
1.215849e+00 5.031903e-01 0.000000e+00
1.261200e+00 5.657599e-01 0.000000e+00
1.259546e+00 4.673151e-01 0.000000e+00
1.311182e+00 5.238692e-01 0.000000e+00
1.259546e+00 4.673151e-01 0.000000e+00
1.311182e+00 5.238692e-01 0.000000e+00
1.299044e+00 4.265079e-01 0.000000e+00
1.356017e+00 4.767799e-01 0.000000e+00
1.299044e+00 4.265079e-01 0.000000e+00
1.356017e+00 4.767799e-01 0.000000e+00
1.334151e+00 3.815236e-01 0.000000e+00
1.395558e+00 4.254001e-01 0.000000e+00
1.334151e+00 3.815236e-01 0.000000e+00
1.395558e+00 4.254001e-01 0.000000e+00
1.364734e+00 3.330449e-01 0.000000e+00
1.429758e+00 3.705086e-01 0.000000e+00
1.364734e+00 3.330449e-01 0.000000e+00
1.429758e+00 3.705086e-01 0.000000e+00
1.390705e+00 2.816889e-01 0.000000e+00
1.458621e+00 3.127753e-01 0.000000e+00
1.390705e+00 2.816889e-01 0.000000e+00
1.458621e+00 3.127753e-01 0.000000e+00
1.412006e+00 2.280169e-01 0.000000e+00
1.482175e+00 2.527841e-01 0.000000e+00
1.412006e+00 2.280169e-01 0.000000e+00
1.482175e+00 2.527841e-01 0.000000e+00
1.428601e+00 1.725440e-01 0.000000e+00
1.500453e+00 1.910543e-01 0.000000e+00
1.428601e+00 1.725440e-01 0.000000e+00
1.500453e+00 1.910543e-01 0.000000e+00
1.440467e+00 1.157502e-01 0.000000e+00
1.513484e+00 1.280576e-01 0.000000e+00
1.440467e+00 1.157502e-01 0.000000e+00
1.513484e+00 1.280576e-01 0.000000e+00
1.447592e+00 5.808974e-02 0.000000e+00
1.521293e+00 6.423327e-02 0.000000e+00
1.447592e+00 5.808974e-02 0.000000e+00
1.521293e+00 6.423327e-02 0.000000e+00
1.449967e+00 7.099890e-12 0.000000e+00
1.523895e+00 7.461890e-12 0.000000e+00
</DataArray>
</Points>
<Cells>
<DataArray type="Int32" Name="connectivity" format="ascii">
0 1 3 2
4 5 7 6
8 9 11 10
12 13 15 14
16 17 19 18
20 21 23 22
24 25 27 26
28 29 31 30
32 33 35 34
36 37 39 38
40 41 43 42
44 45 47 46
48 49 51 50
52 53 55 54
56 57 59 58
60 61 63 62
64 65 67 66
68 69 71 70
72 73 75 74
76 77 79 78
80 81 83 82
84 85 87 86
88 89 91 90
92 93 95 94
96 97 99 98
100 101 103 102
104 105 107 106
108 109 111 110
112 113 115 114
116 117 119 118
</DataArray>
<DataArray type="Int32" Name="offsets" format="ascii">
4
8
12
16
20
24
28
32
36
40
44
48
52
56
60
64
68
72
76
80
84
88
92
96
100
104
108
112
116
120
</DataArray>
<DataArray type="UInt8" Name="types" format="ascii">
9
9
9
9
9
9
9
9
9
9
9
9
9
9
9
9
9
9
9
9
9
9
9
9
9
9
9
9
9
9
</DataArray>
</Cells>
<PointData>
<DataArray type="Float32" Name="V1" format="ascii">
2.687295e+01
-9.794296e-01
2.690597e+01
-9.464013e-01
2.695949e+01
-9.810460e-01
2.705039e+01
-8.901478e-01
2.715951e+01
-9.610754e-01
2.731368e+01
-8.069118e-01
2.747753e+01
-9.149979e-01
2.769661e+01
-6.959154e-01
2.791658e+01
-8.420005e-01
2.820312e+01
-5.554579e-01
2.848053e+01
-7.404456e-01
2.883808e+01
-3.828980e-01
2.917355e+01
-6.074103e-01
2.960683e+01
-1.741298e-01
2.999895e+01
-4.377291e-01
3.051423e+01
7.754596e-02
3.095683e+01
-2.220679e-01
3.156253e+01
3.836308e-01
3.203929e+01
5.690790e-02
3.274721e+01
7.648216e-01
3.322087e+01
4.322604e-01
3.404836e+01
1.259744e+00
3.444002e+01
9.684672e-01
3.541390e+01
1.942343e+00
3.556437e+01
1.793899e+00
3.672730e+01
2.956831e+00
3.632872e+01
3.168950e+00
3.775286e+01
4.593096e+00
3.622579e+01
5.629344e+00
3.810068e+01
7.504237e+00
3.424181e+01
1.080719e+01
3.714292e+01
1.370830e+01
3.322549e+01
1.712489e+01
3.533348e+01
1.923288e+01
3.385707e+01
2.012273e+01
3.565068e+01
2.191635e+01
3.545047e+01
2.207630e+01
3.718976e+01
2.381559e+01
3.760964e+01
2.349269e+01
3.927213e+01
2.515518e+01
3.998692e+01
2.458284e+01
4.152873e+01
2.612465e+01
4.236077e+01
2.545417e+01
4.375217e+01
2.684557e+01
4.459708e+01
2.616787e+01
4.582255e+01
2.739333e+01
4.661878e+01
2.676016e+01
4.767264e+01
2.781402e+01
4.838437e+01
2.725339e+01
4.926674e+01
2.813576e+01
4.987379e+01
2.766179e+01
5.058771e+01
2.837570e+01
5.107934e+01
2.799473e+01
5.162891e+01
2.854430e+01
5.199981e+01
2.825856e+01
5.238905e+01
2.864780e+01
5.263694e+01
2.845764e+01
5.286910e+01
2.868979e+01
5.299315e+01
2.859487e+01
5.307030e+01
2.867202e+01
</DataArray>
<DataArray type="Float32" Name="V2" format="ascii">
5.727883e-01
6.600000e-01
5.753809e-01
6.624218e-01
5.753809e-01
6.624218e-01
5.831061e-01
6.696710e-01
5.831061e-01
6.696710e-01
5.959238e-01
6.816990e-01
5.959238e-01
6.816990e-01
6.137474e-01
6.984249e-01
6.137474e-01
6.984249e-01
6.364560e-01
7.197361e-01
6.364560e-01
7.197361e-01
6.638948e-01
7.454891e-01
6.638948e-01
7.454891e-01
6.958758e-01
7.755106e-01
6.958758e-01
7.755106e-01
7.321774e-01
8.096000e-01
7.321774e-01
8.096000e-01
7.725445e-01
8.475326e-01
7.725445e-01
8.475326e-01
8.166864e-01
8.890673e-01
8.166864e-01
8.890673e-01
8.642719e-01
9.339585e-01
8.642719e-01
9.339585e-01
9.149148e-01
9.819779e-01
9.149148e-01
9.819779e-01
9.681413e-01
1.032946e+00
9.681413e-01
1.032946e+00
1.023302e+00
1.086762e+00
1.023302e+00
1.086762e+00
1.079322e+00
1.143319e+00
1.079322e+00
1.143319e+00
1.135204e+00
1.200971e+00
1.135204e+00
1.200971e+00
1.186146e+00
1.252271e+00
1.186146e+00
1.252271e+00
1.230930e+00
1.298422e+00
1.230930e+00
1.298422e+00
1.270208e+00
1.339327e+00
1.270208e+00
1.339327e+00
1.304552e+00
1.375111e+00
1.304552e+00
1.375111e+00
1.334421e+00
1.406103e+00
1.334421e+00
1.406103e+00
1.360212e+00
1.432707e+00
1.360212e+00
1.432707e+00
1.382263e+00
1.455315e+00
1.382263e+00
1.455315e+00
1.400856e+00
1.474274e+00
1.400856e+00
1.474274e+00
1.416225e+00
1.489872e+00
1.416225e+00
1.489872e+00
1.428558e+00
1.502343e+00
1.428558e+00
1.502343e+00
1.438005e+00
1.511867e+00
1.438005e+00
1.511867e+00
1.444676e+00
1.518579e+00
1.444676e+00
1.518579e+00
1.448648e+00
1.522570e+00
1.448648e+00
1.522570e+00
1.449967e+00
1.523895e+00
</DataArray>
<DataArray type="Float32" Name="V3" format="ascii">
0.000000e+00
0.000000e+00
3.357098e-02
2.892853e-02
3.357098e-02
2.892853e-02
6.668614e-02
5.742463e-02
6.668614e-02
5.742463e-02
9.888910e-02
8.505897e-02
9.888910e-02
8.505897e-02
1.297298e-01
1.114060e-01
1.297298e-01
1.114060e-01
1.587647e-01
1.360474e-01
1.587647e-01
1.360474e-01
1.855589e-01
1.585746e-01
1.855589e-01
1.585746e-01
2.096879e-01
1.785917e-01
2.096879e-01
1.785917e-01
2.307389e-01
1.957197e-01
2.307389e-01
1.957197e-01
2.483106e-01
2.096015e-01
2.483106e-01
2.096015e-01
2.620121e-01
2.199097e-01
2.620121e-01
2.199097e-01
2.714586e-01
2.263582e-01
2.714586e-01
2.263582e-01
2.762623e-01
2.287175e-01
2.762623e-01
2.287175e-01
2.760182e-01
2.268318e-01
2.760182e-01
2.268318e-01
2.702920e-01
2.206165e-01
2.702920e-01
2.206165e-01
2.587017e-01
2.099376e-01
2.587017e-01
2.099376e-01
2.414821e-01
1.937379e-01
2.414821e-01
1.937379e-01
2.236992e-01
1.784514e-01
2.236992e-01
1.784514e-01
2.061203e-01
1.650439e-01
2.061203e-01
1.650439e-01
1.889899e-01
1.526725e-01
1.889899e-01
1.526725e-01
1.721490e-01
1.406376e-01
1.721490e-01
1.406376e-01
1.554413e-01
1.284932e-01
1.554413e-01
1.284932e-01
1.387345e-01
1.159817e-01
1.387345e-01
1.159817e-01
1.219340e-01
1.029779e-01
1.219340e-01
1.029779e-01
1.049815e-01
8.944473e-02
1.049815e-01
8.944473e-02
8.785037e-02
7.540117e-02
8.785037e-02
7.540117e-02
7.053851e-02
6.090132e-02
7.053851e-02
6.090132e-02
5.306281e-02
4.602039e-02
5.306281e-02
4.602039e-02
3.545372e-02
3.084606e-02
3.545372e-02
3.084606e-02
1.775096e-02
1.547309e-02
1.775096e-02
1.547309e-02
0.000000e+00
0.000000e+00
</DataArray>
<DataArray type="Float32" Name="V4" format="ascii">
8.500000e-01
1.000000e+00
8.500000e-01
1.000000e+00
8.500000e-01
1.000000e+00
8.500000e-01
1.000000e+00
8.500000e-01
1.000000e+00
8.500000e-01
1.000000e+00
8.500000e-01
1.000000e+00
8.500000e-01
1.000000e+00
8.500000e-01
1.000000e+00
8.500000e-01
1.000000e+00
8.500000e-01
1.000000e+00
8.500000e-01
1.000000e+00
8.500000e-01
1.000000e+00
8.500000e-01
1.000000e+00
8.500000e-01
1.000000e+00
8.500000e-01
1.000000e+00
8.500000e-01
1.000000e+00
8.500000e-01
1.000000e+00
8.500000e-01
1.000000e+00
8.500000e-01
1.000000e+00
8.500000e-01
1.000000e+00
8.500000e-01
1.000000e+00
8.500000e-01
1.000000e+00
8.500000e-01
1.000000e+00
8.500000e-01
1.000000e+00
8.500000e-01
1.000000e+00
8.500000e-01
1.000000e+00
8.500000e-01
1.000000e+00
8.500000e-01
1.000000e+00
8.500000e-01
1.000000e+00
8.500000e-01
1.000000e+00
8.500000e-01
1.000000e+00
8.500000e-01
1.000000e+00
8.500000e-01
1.000000e+00
8.500000e-01
1.000000e+00
8.500000e-01
1.000000e+00
8.500000e-01
1.000000e+00
8.500000e-01
1.000000e+00
8.500000e-01
1.000000e+00
8.500000e-01
1.000000e+00
8.500000e-01
1.000000e+00
8.500000e-01
1.000000e+00
8.500000e-01
1.000000e+00
8.500000e-01
1.000000e+00
8.500000e-01
1.000000e+00
8.500000e-01
1.000000e+00
8.500000e-01
1.000000e+00
8.500000e-01
1.000000e+00
8.500000e-01
1.000000e+00
8.500000e-01
1.000000e+00
8.500000e-01
1.000000e+00
8.500000e-01
1.000000e+00
8.500000e-01
1.000000e+00
8.500000e-01
1.000000e+00
8.500000e-01
1.000000e+00
8.500000e-01
1.000000e+00
8.500000e-01
1.000000e+00
8.500000e-01
1.000000e+00
8.500000e-01
1.000000e+00
8.500000e-01
1.000000e+00
</DataArray>
<DataArray type="Float32" Name="V5" format="ascii">
0.000000e+00
0.000000e+00
5.235988e-02
5.235988e-02
5.235988e-02
5.235988e-02
1.047198e-01
1.047198e-01
1.047198e-01
1.047198e-01
1.570796e-01
1.570796e-01
1.570796e-01
1.570796e-01
2.094395e-01
2.094395e-01
2.094395e-01
2.094395e-01
2.617994e-01
2.617994e-01
2.617994e-01
2.617994e-01
3.141593e-01
3.141593e-01
3.141593e-01
3.141593e-01
3.665191e-01
3.665191e-01
3.665191e-01
3.665191e-01
4.188790e-01
4.188790e-01
4.188790e-01
4.188790e-01
4.712389e-01
4.712389e-01
4.712389e-01
4.712389e-01
5.235988e-01
5.235988e-01
5.235988e-01
5.235988e-01
5.759587e-01
5.759587e-01
5.759587e-01
5.759587e-01
6.283185e-01
6.283185e-01
6.283185e-01
6.283185e-01
6.806784e-01
6.806784e-01
6.806784e-01
6.806784e-01
7.330383e-01
7.330383e-01
7.330383e-01
7.330383e-01
7.853982e-01
7.853982e-01
7.853982e-01
7.853982e-01
8.377580e-01
8.377580e-01
8.377580e-01
8.377580e-01
8.901179e-01
8.901179e-01
8.901179e-01
8.901179e-01
9.424778e-01
9.424778e-01
9.424778e-01
9.424778e-01
9.948377e-01
9.948377e-01
9.948377e-01
9.948377e-01
1.047198e+00
1.047198e+00
1.047198e+00
1.047198e+00
1.099557e+00
1.099557e+00
1.099557e+00
1.099557e+00
1.151917e+00
1.151917e+00
1.151917e+00
1.151917e+00
1.204277e+00
1.204277e+00
1.204277e+00
1.204277e+00
1.256637e+00
1.256637e+00
1.256637e+00
1.256637e+00
1.308997e+00
1.308997e+00
1.308997e+00
1.308997e+00
1.361357e+00
1.361357e+00
1.361357e+00
1.361357e+00
1.413717e+00
1.413717e+00
1.413717e+00
1.413717e+00
1.466077e+00
1.466077e+00
1.466077e+00
1.466077e+00
1.518436e+00
1.518436e+00
1.518436e+00
1.518436e+00
1.570796e+00
1.570796e+00
</DataArray>
</PointData>
</Piece></UnstructuredGrid>
</VTKFile>
