<?xml version="1.0"?>
<VTKFile type="UnstructuredGrid" version="0.1" byte_order="LittleEndian" compressor="vtkZLibDataCompressor">
<UnstructuredGrid>
<Piece NumberOfPoints="120" NumberOfCells="30">
<Points>
<DataArray type="Float32" NumberOfComponents="3" format="ascii">
0.000000e+00 7.548436e-01 0.000000e+00
0.000000e+00 8.600000e-01 0.000000e+00
5.797420e-02 7.549014e-01 0.000000e+00
5.787740e-02 8.600000e-01 0.000000e+00
5.797420e-02 7.549014e-01 0.000000e+00
5.787740e-02 8.600000e-01 0.000000e+00
1.159456e-01 7.550508e-01 0.000000e+00
1.157615e-01 8.600000e-01 0.000000e+00
1.159456e-01 7.550508e-01 0.000000e+00
1.157615e-01 8.600000e-01 0.000000e+00
1.739067e-01 7.553043e-01 0.000000e+00
1.736657e-01 8.600000e-01 0.000000e+00
1.739067e-01 7.553043e-01 0.000000e+00
1.736657e-01 8.600000e-01 0.000000e+00
2.318447e-01 7.556690e-01 0.000000e+00
2.316155e-01 8.600000e-01 0.000000e+00
2.318447e-01 7.556690e-01 0.000000e+00
2.316155e-01 8.600000e-01 0.000000e+00
2.897316e-01 7.561570e-01 0.000000e+00
2.896623e-01 8.600000e-01 0.000000e+00
2.897316e-01 7.561570e-01 0.000000e+00
2.896623e-01 8.600000e-01 0.000000e+00
3.475081e-01 7.567829e-01 0.000000e+00
3.479027e-01 8.600000e-01 0.000000e+00
3.475081e-01 7.567829e-01 0.000000e+00
3.479027e-01 8.600000e-01 0.000000e+00
4.050521e-01 7.575514e-01 0.000000e+00
4.065022e-01 8.600000e-01 0.000000e+00
4.050521e-01 7.575514e-01 0.000000e+00
4.065022e-01 8.600000e-01 0.000000e+00
4.621216e-01 7.584115e-01 0.000000e+00
4.657008e-01 8.600000e-01 0.000000e+00
4.621216e-01 7.584115e-01 0.000000e+00
4.657008e-01 8.600000e-01 0.000000e+00
5.182678e-01 7.590913e-01 0.000000e+00
5.257329e-01 8.600000e-01 0.000000e+00
5.182678e-01 7.590913e-01 0.000000e+00
5.257329e-01 8.600000e-01 0.000000e+00
5.730024e-01 7.589803e-01 0.000000e+00
5.863012e-01 8.600000e-01 0.000000e+00
5.730024e-01 7.589803e-01 0.000000e+00
5.863012e-01 8.600000e-01 0.000000e+00
6.268652e-01 7.558772e-01 0.000000e+00
6.459463e-01 8.563817e-01 0.000000e+00
6.268652e-01 7.558772e-01 0.000000e+00
6.459463e-01 8.563817e-01 0.000000e+00
6.787571e-01 7.469394e-01 0.000000e+00
7.051615e-01 8.445872e-01 0.000000e+00
6.787571e-01 7.469394e-01 0.000000e+00
7.051615e-01 8.445872e-01 0.000000e+00
7.289738e-01 7.326939e-01 0.000000e+00
7.634722e-01 8.267218e-01 0.000000e+00
7.289738e-01 7.326939e-01 0.000000e+00
7.634722e-01 8.267218e-01 0.000000e+00
7.774416e-01 7.132445e-01 0.000000e+00
8.198804e-01 8.030089e-01 0.000000e+00
7.774416e-01 7.132445e-01 0.000000e+00
8.198804e-01 8.030089e-01 0.000000e+00
8.239560e-01 6.890549e-01 0.000000e+00
8.737977e-01 7.740440e-01 0.000000e+00
8.239560e-01 6.890549e-01 0.000000e+00
8.737977e-01 7.740440e-01 0.000000e+00
8.682905e-01 6.605414e-01 0.000000e+00
9.248441e-01 7.403970e-01 0.000000e+00
8.682905e-01 6.605414e-01 0.000000e+00
9.248441e-01 7.403970e-01 0.000000e+00
9.102385e-01 6.281193e-01 0.000000e+00
9.727882e-01 7.026040e-01 0.000000e+00
9.102385e-01 6.281193e-01 0.000000e+00
9.727882e-01 7.026040e-01 0.000000e+00
9.496201e-01 5.921811e-01 0.000000e+00
1.017482e+00 6.611441e-01 0.000000e+00
9.496201e-01 5.921811e-01 0.000000e+00
1.017482e+00 6.611441e-01 0.000000e+00
9.862836e-01 5.530948e-01 0.000000e+00
1.058828e+00 6.164419e-01 0.000000e+00
9.862836e-01 5.530948e-01 0.000000e+00
1.058828e+00 6.164419e-01 0.000000e+00
1.020102e+00 5.112023e-01 0.000000e+00
1.096756e+00 5.688756e-01 0.000000e+00
1.020102e+00 5.112023e-01 0.000000e+00
1.096756e+00 5.688756e-01 0.000000e+00
1.050969e+00 4.668219e-01 0.000000e+00
1.131213e+00 5.187854e-01 0.000000e+00
1.050969e+00 4.668219e-01 0.000000e+00
1.131213e+00 5.187854e-01 0.000000e+00
1.078797e+00 4.202512e-01 0.000000e+00
1.162155e+00 4.664812e-01 0.000000e+00
1.078797e+00 4.202512e-01 0.000000e+00
1.162155e+00 4.664812e-01 0.000000e+00
1.103509e+00 3.717700e-01 0.000000e+00
1.189544e+00 4.122503e-01 0.000000e+00
1.103509e+00 3.717700e-01 0.000000e+00
1.189544e+00 4.122503e-01 0.000000e+00
1.125045e+00 3.216436e-01 0.000000e+00
1.213350e+00 3.563620e-01 0.000000e+00
1.125045e+00 3.216436e-01 0.000000e+00
1.213350e+00 3.563620e-01 0.000000e+00
1.143352e+00 2.701255e-01 0.000000e+00
1.233543e+00 2.990725e-01 0.000000e+00
1.143352e+00 2.701255e-01 0.000000e+00
1.233543e+00 2.990725e-01 0.000000e+00
1.158386e+00 2.174603e-01 0.000000e+00
1.250100e+00 2.406277e-01 0.000000e+00
1.158386e+00 2.174603e-01 0.000000e+00
1.250100e+00 2.406277e-01 0.000000e+00
1.170114e+00 1.638850e-01 0.000000e+00
1.262998e+00 1.812665e-01 0.000000e+00
1.170114e+00 1.638850e-01 0.000000e+00
1.262998e+00 1.812665e-01 0.000000e+00
1.178510e+00 1.096315e-01 0.000000e+00
1.272223e+00 1.212221e-01 0.000000e+00
1.178510e+00 1.096315e-01 0.000000e+00
1.272223e+00 1.212221e-01 0.000000e+00
1.183555e+00 5.492799e-02 0.000000e+00
1.277763e+00 6.072415e-02 0.000000e+00
1.183555e+00 5.492799e-02 0.000000e+00
1.277763e+00 6.072415e-02 0.000000e+00
1.185238e+00 5.803620e-12 0.000000e+00
1.279611e+00 6.265730e-12 0.000000e+00
</DataArray>
</Points>
<Cells>
<DataArray type="Int32" Name="connectivity" format="ascii">
0 1 3 2
4 5 7 6
8 9 11 10
12 13 15 14
16 17 19 18
20 21 23 22
24 25 27 26
28 29 31 30
32 33 35 34
36 37 39 38
40 41 43 42
44 45 47 46
48 49 51 50
52 53 55 54
56 57 59 58
60 61 63 62
64 65 67 66
68 69 71 70
72 73 75 74
76 77 79 78
80 81 83 82
84 85 87 86
88 89 91 90
92 93 95 94
96 97 99 98
100 101 103 102
104 105 107 106
108 109 111 110
112 113 115 114
116 117 119 118
</DataArray>
<DataArray type="Int32" Name="offsets" format="ascii">
4
8
12
16
20
24
28
32
36
40
44
48
52
56
60
64
68
72
76
80
84
88
92
96
100
104
108
112
116
120
</DataArray>
<DataArray type="UInt8" Name="types" format="ascii">
9
9
9
9
9
9
9
9
9
9
9
9
9
9
9
9
9
9
9
9
9
9
9
9
9
9
9
9
9
9
</DataArray>
</Cells>
<PointData>
<DataArray type="Float32" Name="V1" format="ascii">
1.330177e+01
-4.691850e-01
1.332091e+01
-4.500532e-01
1.334268e+01
-4.655998e-01
1.339290e+01
-4.153743e-01
1.343629e+01
-4.454172e-01
1.352082e+01
-3.608819e-01
1.357923e+01
-4.023680e-01
1.369853e+01
-2.830745e-01
1.375911e+01
-3.276606e-01
1.391455e+01
-1.722163e-01
1.394812e+01
-2.007563e-01
1.414389e+01
-4.986321e-03
1.408874e+01
2.414295e-02
1.433637e+01
2.717764e-01
1.407066e+01
4.455099e-01
1.440027e+01
7.751233e-01
1.370297e+01
1.262293e+00
1.420329e+01
1.762616e+00
1.267485e+01
2.944198e+00
1.355976e+01
3.829108e+00
1.122565e+01
6.077607e+00
1.221812e+01
7.070082e+00
1.095731e+01
7.842113e+00
1.140104e+01
8.285847e+00
1.097782e+01
8.637651e+00
1.141538e+01
9.075209e+00
1.128407e+01
9.189335e+00
1.170565e+01
9.610914e+00
1.174796e+01
9.578448e+00
1.214283e+01
9.973320e+00
1.227097e+01
9.867192e+00
1.263198e+01
1.022820e+01
1.280011e+01
1.008900e+01
1.312483e+01
1.041371e+01
1.330578e+01
1.026501e+01
1.359443e+01
1.055366e+01
1.377295e+01
1.040830e+01
1.402724e+01
1.066259e+01
1.419502e+01
1.052725e+01
1.441731e+01
1.074955e+01
1.457013e+01
1.062732e+01
1.476298e+01
1.082016e+01
1.489903e+01
1.071216e+01
1.506490e+01
1.087803e+01
1.518375e+01
1.078429e+01
1.532490e+01
1.092545e+01
1.542680e+01
1.084552e+01
1.554524e+01
1.096396e+01
1.563078e+01
1.089716e+01
1.572821e+01
1.099459e+01
1.579812e+01
1.094020e+01
1.587596e+01
1.101804e+01
1.593095e+01
1.097538e+01
1.599033e+01
1.103477e+01
1.603101e+01
1.100328e+01
1.607281e+01
1.104509e+01
1.609965e+01
1.102435e+01
1.612449e+01
1.104919e+01
1.613783e+01
1.103889e+01
1.614607e+01
1.104713e+01
</DataArray>
<DataArray type="Float32" Name="V2" format="ascii">
7.548436e-01
8.600000e-01
7.569009e-01
8.618505e-01
7.569009e-01
8.618505e-01
7.630342e-01
8.673892e-01
7.630342e-01
8.673892e-01
7.732103e-01
8.765793e-01
7.732103e-01
8.765793e-01
7.873591e-01
8.893625e-01
7.873591e-01
8.893625e-01
8.053796e-01
9.056663e-01
8.053796e-01
9.056663e-01
8.271292e-01
9.254165e-01
8.271292e-01
9.254165e-01
8.523928e-01
9.485565e-01
8.523928e-01
9.485565e-01
8.808052e-01
9.750667e-01
8.808052e-01
9.750667e-01
9.116440e-01
1.004943e+00
9.116440e-01
1.004943e+00
9.437974e-01
1.037932e+00
9.437974e-01
1.037932e+00
9.753473e-01
1.070030e+00
9.753473e-01
1.070030e+00
1.003250e+00
1.097769e+00
1.003250e+00
1.097769e+00
1.028168e+00
1.122952e+00
1.028168e+00
1.122952e+00
1.050254e+00
1.145359e+00
1.050254e+00
1.145359e+00
1.069860e+00
1.165200e+00
1.069860e+00
1.165200e+00
1.087254e+00
1.182715e+00
1.087254e+00
1.182715e+00
1.102676e+00
1.198161e+00
1.102676e+00
1.198161e+00
1.116334e+00
1.211771e+00
1.116334e+00
1.211771e+00
1.128404e+00
1.223746e+00
1.128404e+00
1.223746e+00
1.139035e+00
1.234256e+00
1.139035e+00
1.234256e+00
1.148353e+00
1.243441e+00
1.148353e+00
1.243441e+00
1.156461e+00
1.251416e+00
1.156461e+00
1.251416e+00
1.163445e+00
1.258273e+00
1.163445e+00
1.258273e+00
1.169375e+00
1.264087e+00
1.169375e+00
1.264087e+00
1.174306e+00
1.268917e+00
1.174306e+00
1.268917e+00
1.178285e+00
1.272811e+00
1.178285e+00
1.272811e+00
1.181345e+00
1.275805e+00
1.181345e+00
1.275805e+00
1.183514e+00
1.277925e+00
1.183514e+00
1.277925e+00
1.184808e+00
1.279190e+00
1.184808e+00
1.279190e+00
1.185238e+00
1.279611e+00
</DataArray>
<DataArray type="Float32" Name="V3" format="ascii">
0.000000e+00
0.000000e+00
1.838627e-02
1.278915e-02
1.838627e-02
1.278915e-02
3.638616e-02
2.523288e-02
3.638616e-02
2.523288e-02
5.361003e-02
3.699398e-02
5.361003e-02
3.699398e-02
6.966592e-02
4.775009e-02
6.966592e-02
4.775009e-02
8.415136e-02
5.720789e-02
8.415136e-02
5.720789e-02
9.664102e-02
6.512056e-02
9.664102e-02
6.512056e-02
1.066665e-01
7.130607e-02
1.066665e-01
7.130607e-02
1.136954e-01
7.564532e-02
1.136954e-01
7.564532e-02
1.171598e-01
7.799961e-02
1.171598e-01
7.799961e-02
1.167445e-01
7.775174e-02
1.167445e-01
7.775174e-02
1.140531e-01
7.531720e-02
1.140531e-01
7.531720e-02
1.100860e-01
7.405175e-02
1.100860e-01
7.405175e-02
1.054198e-01
7.305644e-02
1.054198e-01
7.305644e-02
1.004979e-01
7.197205e-02
1.004979e-01
7.197205e-02
9.538949e-02
7.053654e-02
9.538949e-02
7.053654e-02
9.012184e-02
6.861931e-02
9.012184e-02
6.861931e-02
8.469131e-02
6.616956e-02
8.469131e-02
6.616956e-02
7.908810e-02
6.318428e-02
7.908810e-02
6.318428e-02
7.330425e-02
5.968743e-02
7.330425e-02
5.968743e-02
6.733689e-02
5.571724e-02
6.733689e-02
5.571724e-02
6.118874e-02
5.131865e-02
6.118874e-02
5.131865e-02
5.486756e-02
4.653903e-02
5.486756e-02
4.653903e-02
4.838524e-02
4.142583e-02
4.838524e-02
4.142583e-02
4.175685e-02
3.602544e-02
4.175685e-02
3.602544e-02
3.499993e-02
3.038271e-02
3.499993e-02
3.038271e-02
2.813375e-02
2.454087e-02
2.813375e-02
2.454087e-02
2.117891e-02
1.854166e-02
2.117891e-02
1.854166e-02
1.415688e-02
1.242554e-02
1.415688e-02
1.242554e-02
7.089758e-03
6.232037e-03
7.089758e-03
6.232037e-03
0.000000e+00
0.000000e+00
</DataArray>
<DataArray type="Float32" Name="V4" format="ascii">
8.500000e-01
1.000000e+00
8.500000e-01
1.000000e+00
8.500000e-01
1.000000e+00
8.500000e-01
1.000000e+00
8.500000e-01
1.000000e+00
8.500000e-01
1.000000e+00
8.500000e-01
1.000000e+00
8.500000e-01
1.000000e+00
8.500000e-01
1.000000e+00
8.500000e-01
1.000000e+00
8.500000e-01
1.000000e+00
8.500000e-01
1.000000e+00
8.500000e-01
1.000000e+00
8.500000e-01
1.000000e+00
8.500000e-01
1.000000e+00
8.500000e-01
1.000000e+00
8.500000e-01
1.000000e+00
8.500000e-01
1.000000e+00
8.500000e-01
1.000000e+00
8.500000e-01
1.000000e+00
8.500000e-01
1.000000e+00
8.500000e-01
1.000000e+00
8.500000e-01
1.000000e+00
8.500000e-01
1.000000e+00
8.500000e-01
1.000000e+00
8.500000e-01
1.000000e+00
8.500000e-01
1.000000e+00
8.500000e-01
1.000000e+00
8.500000e-01
1.000000e+00
8.500000e-01
1.000000e+00
8.500000e-01
1.000000e+00
8.500000e-01
1.000000e+00
8.500000e-01
1.000000e+00
8.500000e-01
1.000000e+00
8.500000e-01
1.000000e+00
8.500000e-01
1.000000e+00
8.500000e-01
1.000000e+00
8.500000e-01
1.000000e+00
8.500000e-01
1.000000e+00
8.500000e-01
1.000000e+00
8.500000e-01
1.000000e+00
8.500000e-01
1.000000e+00
8.500000e-01
1.000000e+00
8.500000e-01
1.000000e+00
8.500000e-01
1.000000e+00
8.500000e-01
1.000000e+00
8.500000e-01
1.000000e+00
8.500000e-01
1.000000e+00
8.500000e-01
1.000000e+00
8.500000e-01
1.000000e+00
8.500000e-01
1.000000e+00
8.500000e-01
1.000000e+00
8.500000e-01
1.000000e+00
8.500000e-01
1.000000e+00
8.500000e-01
1.000000e+00
8.500000e-01
1.000000e+00
8.500000e-01
1.000000e+00
8.500000e-01
1.000000e+00
8.500000e-01
1.000000e+00
8.500000e-01
1.000000e+00
</DataArray>
<DataArray type="Float32" Name="V5" format="ascii">
0.000000e+00
0.000000e+00
5.235988e-02
5.235988e-02
5.235988e-02
5.235988e-02
1.047198e-01
1.047198e-01
1.047198e-01
1.047198e-01
1.570796e-01
1.570796e-01
1.570796e-01
1.570796e-01
2.094395e-01
2.094395e-01
2.094395e-01
2.094395e-01
2.617994e-01
2.617994e-01
2.617994e-01
2.617994e-01
3.141593e-01
3.141593e-01
3.141593e-01
3.141593e-01
3.665191e-01
3.665191e-01
3.665191e-01
3.665191e-01
4.188790e-01
4.188790e-01
4.188790e-01
4.188790e-01
4.712389e-01
4.712389e-01
4.712389e-01
4.712389e-01
5.235988e-01
5.235988e-01
5.235988e-01
5.235988e-01
5.759587e-01
5.759587e-01
5.759587e-01
5.759587e-01
6.283185e-01
6.283185e-01
6.283185e-01
6.283185e-01
6.806784e-01
6.806784e-01
6.806784e-01
6.806784e-01
7.330383e-01
7.330383e-01
7.330383e-01
7.330383e-01
7.853982e-01
7.853982e-01
7.853982e-01
7.853982e-01
8.377580e-01
8.377580e-01
8.377580e-01
8.377580e-01
8.901179e-01
8.901179e-01
8.901179e-01
8.901179e-01
9.424778e-01
9.424778e-01
9.424778e-01
9.424778e-01
9.948377e-01
9.948377e-01
9.948377e-01
9.948377e-01
1.047198e+00
1.047198e+00
1.047198e+00
1.047198e+00
1.099557e+00
1.099557e+00
1.099557e+00
1.099557e+00
1.151917e+00
1.151917e+00
1.151917e+00
1.151917e+00
1.204277e+00
1.204277e+00
1.204277e+00
1.204277e+00
1.256637e+00
1.256637e+00
1.256637e+00
1.256637e+00
1.308997e+00
1.308997e+00
1.308997e+00
1.308997e+00
1.361357e+00
1.361357e+00
1.361357e+00
1.361357e+00
1.413717e+00
1.413717e+00
1.413717e+00
1.413717e+00
1.466077e+00
1.466077e+00
1.466077e+00
1.466077e+00
1.518436e+00
1.518436e+00
1.518436e+00
1.518436e+00
1.570796e+00
1.570796e+00
</DataArray>
</PointData>
</Piece></UnstructuredGrid>
</VTKFile>
