<?xml version="1.0"?>
<VTKFile type="UnstructuredGrid" version="0.1" byte_order="LittleEndian" compressor="vtkZLibDataCompressor">
<UnstructuredGrid>
<Piece NumberOfPoints="120" NumberOfCells="30">
<Points>
<DataArray type="Float32" NumberOfComponents="3" format="ascii">
0.000000e+00 3.742221e-01 0.000000e+00
0.000000e+00 4.100000e-01 0.000000e+00
9.933965e-02 3.742669e-01 0.000000e+00
9.933265e-02 4.100000e-01 0.000000e+00
9.933965e-02 3.742669e-01 0.000000e+00
9.933265e-02 4.100000e-01 0.000000e+00
1.986706e-01 3.743090e-01 0.000000e+00
1.986567e-01 4.100000e-01 0.000000e+00
1.986706e-01 3.743090e-01 0.000000e+00
1.986567e-01 4.100000e-01 0.000000e+00
2.979786e-01 3.743774e-01 0.000000e+00
2.979576e-01 4.100000e-01 0.000000e+00
2.979786e-01 3.743774e-01 0.000000e+00
2.979576e-01 4.100000e-01 0.000000e+00
3.972524e-01 3.744729e-01 0.000000e+00
3.972238e-01 4.100000e-01 0.000000e+00
3.972524e-01 3.744729e-01 0.000000e+00
3.972238e-01 4.100000e-01 0.000000e+00
4.964800e-01 3.745953e-01 0.000000e+00
4.964435e-01 4.100000e-01 0.000000e+00
4.964800e-01 3.745953e-01 0.000000e+00
4.964435e-01 4.100000e-01 0.000000e+00
5.956491e-01 3.747443e-01 0.000000e+00
5.956042e-01 4.100000e-01 0.000000e+00
5.956491e-01 3.747443e-01 0.000000e+00
5.956042e-01 4.100000e-01 0.000000e+00
6.947468e-01 3.749196e-01 0.000000e+00
6.946928e-01 4.100000e-01 0.000000e+00
6.947468e-01 3.749196e-01 0.000000e+00
6.946928e-01 4.100000e-01 0.000000e+00
7.937594e-01 3.751207e-01 0.000000e+00
7.936956e-01 4.100000e-01 0.000000e+00
7.937594e-01 3.751207e-01 0.000000e+00
7.936956e-01 4.100000e-01 0.000000e+00
8.926724e-01 3.753470e-01 0.000000e+00
8.925979e-01 4.100000e-01 0.000000e+00
8.926724e-01 3.753470e-01 0.000000e+00
8.925979e-01 4.100000e-01 0.000000e+00
9.914704e-01 3.755979e-01 0.000000e+00
9.913842e-01 4.100000e-01 0.000000e+00
9.914704e-01 3.755979e-01 0.000000e+00
9.913842e-01 4.100000e-01 0.000000e+00
1.090136e+00 3.758729e-01 0.000000e+00
1.090038e+00 4.100000e-01 0.000000e+00
1.090136e+00 3.758729e-01 0.000000e+00
1.090038e+00 4.100000e-01 0.000000e+00
1.188653e+00 3.761712e-01 0.000000e+00
1.188542e+00 4.100000e-01 0.000000e+00
1.188653e+00 3.761712e-01 0.000000e+00
1.188542e+00 4.100000e-01 0.000000e+00
1.286999e+00 3.764919e-01 0.000000e+00
1.286876e+00 4.100000e-01 0.000000e+00
1.286999e+00 3.764919e-01 0.000000e+00
1.286876e+00 4.100000e-01 0.000000e+00
1.385155e+00 3.768341e-01 0.000000e+00
1.385023e+00 4.100000e-01 0.000000e+00
1.385155e+00 3.768341e-01 0.000000e+00
1.385023e+00 4.100000e-01 0.000000e+00
1.483095e+00 3.771961e-01 0.000000e+00
1.482961e+00 4.100000e-01 0.000000e+00
1.483095e+00 3.771961e-01 0.000000e+00
1.482961e+00 4.100000e-01 0.000000e+00
1.580791e+00 3.775759e-01 0.000000e+00
1.580672e+00 4.100000e-01 0.000000e+00
1.580791e+00 3.775759e-01 0.000000e+00
1.580672e+00 4.100000e-01 0.000000e+00
1.678210e+00 3.779702e-01 0.000000e+00
1.678137e+00 4.100000e-01 0.000000e+00
1.678210e+00 3.779702e-01 0.000000e+00
1.678137e+00 4.100000e-01 0.000000e+00
1.775313e+00 3.783733e-01 0.000000e+00
1.775346e+00 4.100000e-01 0.000000e+00
1.775313e+00 3.783733e-01 0.000000e+00
1.775346e+00 4.100000e-01 0.000000e+00
1.872045e+00 3.787767e-01 0.000000e+00
1.872302e+00 4.100000e-01 0.000000e+00
1.872045e+00 3.787767e-01 0.000000e+00
1.872302e+00 4.100000e-01 0.000000e+00
1.968336e+00 3.791697e-01 0.000000e+00
1.969042e+00 4.100000e-01 0.000000e+00
1.968336e+00 3.791697e-01 0.000000e+00
1.969042e+00 4.100000e-01 0.000000e+00
2.064078e+00 3.795481e-01 0.000000e+00
2.065671e+00 4.100000e-01 0.000000e+00
2.064078e+00 3.795481e-01 0.000000e+00
2.065671e+00 4.100000e-01 0.000000e+00
2.159089e+00 3.799388e-01 0.000000e+00
2.162422e+00 4.100000e-01 0.000000e+00
2.159089e+00 3.799388e-01 0.000000e+00
2.162422e+00 4.100000e-01 0.000000e+00
2.253050e+00 3.804330e-01 0.000000e+00
2.259710e+00 4.100000e-01 0.000000e+00
2.253050e+00 3.804330e-01 0.000000e+00
2.259710e+00 4.100000e-01 0.000000e+00
2.346600e+00 3.806535e-01 0.000000e+00
2.357240e+00 4.092136e-01 0.000000e+00
2.346600e+00 3.806535e-01 0.000000e+00
2.357240e+00 4.092136e-01 0.000000e+00
2.435306e+00 3.579056e-01 0.000000e+00
2.448695e+00 3.837011e-01 0.000000e+00
2.435306e+00 3.579056e-01 0.000000e+00
2.448695e+00 3.837011e-01 0.000000e+00
2.511183e+00 3.110083e-01 0.000000e+00
2.528973e+00 3.334272e-01 0.000000e+00
2.511183e+00 3.110083e-01 0.000000e+00
2.528973e+00 3.334272e-01 0.000000e+00
2.571229e+00 2.471558e-01 0.000000e+00
2.593317e+00 2.647921e-01 0.000000e+00
2.571229e+00 2.471558e-01 0.000000e+00
2.593317e+00 2.647921e-01 0.000000e+00
2.614872e+00 1.713547e-01 0.000000e+00
2.640013e+00 1.833108e-01 0.000000e+00
2.614872e+00 1.713547e-01 0.000000e+00
2.640013e+00 1.833108e-01 0.000000e+00
2.641636e+00 8.764531e-02 0.000000e+00
2.668464e+00 9.361529e-02 0.000000e+00
2.641636e+00 8.764531e-02 0.000000e+00
2.668464e+00 9.361529e-02 0.000000e+00
2.650675e+00 1.297926e-11 0.000000e+00
2.678031e+00 1.311322e-11 0.000000e+00
</DataArray>
</Points>
<Cells>
<DataArray type="Int32" Name="connectivity" format="ascii">
0 1 3 2
4 5 7 6
8 9 11 10
12 13 15 14
16 17 19 18
20 21 23 22
24 25 27 26
28 29 31 30
32 33 35 34
36 37 39 38
40 41 43 42
44 45 47 46
48 49 51 50
52 53 55 54
56 57 59 58
60 61 63 62
64 65 67 66
68 69 71 70
72 73 75 74
76 77 79 78
80 81 83 82
84 85 87 86
88 89 91 90
92 93 95 94
96 97 99 98
100 101 103 102
104 105 107 106
108 109 111 110
112 113 115 114
116 117 119 118
</DataArray>
<DataArray type="Int32" Name="offsets" format="ascii">
4
8
12
16
20
24
28
32
36
40
44
48
52
56
60
64
68
72
76
80
84
88
92
96
100
104
108
112
116
120
</DataArray>
<DataArray type="UInt8" Name="types" format="ascii">
9
9
9
9
9
9
9
9
9
9
9
9
9
9
9
9
9
9
9
9
9
9
9
9
9
9
9
9
9
9
</DataArray>
</Cells>
<PointData>
<DataArray type="Float32" Name="V1" format="ascii">
9.204995e+02
1.165821e+02
9.214287e+02
1.175113e+02
9.226641e+02
1.166229e+02
9.252539e+02
1.192127e+02
9.277875e+02
1.174892e+02
9.321118e+02
1.218134e+02
9.359751e+02
1.192288e+02
9.420740e+02
1.253276e+02
9.473104e+02
1.218568e+02
9.552558e+02
1.298022e+02
9.619216e+02
1.254042e+02
9.718091e+02
1.352918e+02
9.799781e+02
1.299146e+02
9.919282e+02
1.418646e+02
1.001694e+03
1.354441e+02
1.015854e+03
1.496049e+02
1.027331e+03
1.420633e+02
1.043883e+03
1.586154e+02
1.057207e+03
1.498593e+02
1.076368e+03
1.690205e+02
1.091705e+03
1.589381e+02
1.113738e+03
1.809710e+02
1.131278e+03
1.694294e+02
1.156498e+03
1.946496e+02
1.176463e+03
1.814910e+02
1.205252e+03
2.102799e+02
1.227890e+03
1.953172e+02
1.260711e+03
2.281384e+02
1.286293e+03
2.111508e+02
1.323716e+03
2.485739e+02
1.352516e+03
2.293012e+02
1.395253e+03
2.720380e+02
1.427507e+03
2.501770e+02
1.476465e+03
2.991350e+02
1.512290e+03
2.743426e+02
1.568652e+03
3.307046e+02
1.607890e+03
3.026315e+02
1.673218e+03
3.679603e+02
1.715168e+03
3.363884e+02
1.791497e+03
4.127170e+02
1.834481e+03
3.780435e+02
1.924214e+03
4.677760e+02
1.964908e+03
4.325086e+02
2.070100e+03
5.377007e+02
2.102090e+03
5.103291e+02
2.222909e+03
6.311475e+02
2.215451e+03
6.370810e+02
2.374805e+03
7.964355e+02
2.369425e+03
8.101226e+02
2.508647e+03
9.493443e+02
2.544909e+03
9.449957e+02
2.677363e+03
1.077450e+03
2.741087e+03
1.052325e+03
2.859406e+03
1.170644e+03
2.937343e+03
1.128114e+03
3.029646e+03
1.220417e+03
3.095623e+03
1.180756e+03
3.154758e+03
1.239891e+03
3.190202e+03
1.217649e+03
3.210655e+03
1.238102e+03
</DataArray>
<DataArray type="Float32" Name="V2" format="ascii">
3.742221e-01
4.100000e-01
3.789530e-01
4.146368e-01
3.789530e-01
4.146368e-01
3.930253e-01
4.285193e-01
3.930253e-01
4.285193e-01
4.163823e-01
4.515631e-01
4.163823e-01
4.515631e-01
4.488832e-01
4.836280e-01
4.488832e-01
4.836280e-01
4.903298e-01
5.245186e-01
4.903298e-01
5.245186e-01
5.404688e-01
5.739850e-01
5.404688e-01
5.739850e-01
5.989926e-01
6.317236e-01
5.989926e-01
6.317236e-01
6.655408e-01
6.973787e-01
6.655408e-01
6.973787e-01
7.397014e-01
7.705436e-01
7.397014e-01
7.705436e-01
8.210125e-01
8.507625e-01
8.210125e-01
8.507625e-01
9.089644e-01
9.375322e-01
9.089644e-01
9.375322e-01
1.003001e+00
1.030304e+00
1.003001e+00
1.030304e+00
1.102524e+00
1.128487e+00
1.102524e+00
1.128487e+00
1.206892e+00
1.231451e+00
1.206892e+00
1.231451e+00
1.315424e+00
1.338526e+00
1.315424e+00
1.338526e+00
1.427404e+00
1.449011e+00
1.427404e+00
1.449011e+00
1.542079e+00
1.562179e+00
1.542079e+00
1.562179e+00
1.658660e+00
1.677277e+00
1.658660e+00
1.677277e+00
1.776326e+00
1.793547e+00
1.776326e+00
1.793547e+00
1.894214e+00
1.910240e+00
1.894214e+00
1.910240e+00
2.011418e+00
2.026663e+00
2.011418e+00
2.026663e+00
2.126961e+00
2.142233e+00
2.126961e+00
2.142233e+00
2.239738e+00
2.256552e+00
2.239738e+00
2.256552e+00
2.349377e+00
2.368322e+00
2.349377e+00
2.368322e+00
2.444958e+00
2.464567e+00
2.444958e+00
2.464567e+00
2.520970e+00
2.543032e+00
2.520970e+00
2.543032e+00
2.578236e+00
2.602812e+00
2.578236e+00
2.602812e+00
2.618459e+00
2.644712e+00
2.618459e+00
2.644712e+00
2.642603e+00
2.669706e+00
2.642603e+00
2.669706e+00
2.650675e+00
2.678031e+00
</DataArray>
<DataArray type="Float32" Name="V3" format="ascii">
0.000000e+00
0.000000e+00
7.961589e-02
7.773877e-02
7.961589e-02
7.773877e-02
1.584563e-01
1.547118e-01
1.584563e-01
1.547118e-01
2.357445e-01
2.301511e-01
2.357445e-01
2.301511e-01
3.107142e-01
3.032997e-01
3.107142e-01
3.032997e-01
3.826104e-01
3.734118e-01
3.826104e-01
3.734118e-01
4.506936e-01
4.397563e-01
4.506936e-01
4.397563e-01
5.142428e-01
5.016207e-01
5.142428e-01
5.016207e-01
5.725600e-01
5.583149e-01
5.725600e-01
5.583149e-01
6.249730e-01
6.091744e-01
6.249730e-01
6.091744e-01
6.708396e-01
6.535639e-01
6.708396e-01
6.535639e-01
7.095503e-01
6.908808e-01
7.095503e-01
6.908808e-01
7.405324e-01
7.205584e-01
7.405324e-01
7.205584e-01
7.632524e-01
7.420695e-01
7.632524e-01
7.420695e-01
7.772195e-01
7.549291e-01
7.772195e-01
7.549291e-01
7.819883e-01
7.586981e-01
7.819883e-01
7.586981e-01
7.771619e-01
7.529863e-01
7.771619e-01
7.529863e-01
7.623940e-01
7.374559e-01
7.623940e-01
7.374559e-01
7.373922e-01
7.118251e-01
7.373922e-01
7.118251e-01
7.019201e-01
6.758739e-01
7.019201e-01
6.758739e-01
6.557973e-01
6.294505e-01
6.557973e-01
6.294505e-01
5.988918e-01
5.724824e-01
5.988918e-01
5.724824e-01
5.310893e-01
5.049827e-01
5.310893e-01
5.049827e-01
4.522559e-01
4.270398e-01
4.522559e-01
4.270398e-01
3.631162e-01
3.392418e-01
3.631162e-01
3.392418e-01
2.845934e-01
2.631422e-01
2.845934e-01
2.631422e-01
2.178922e-01
1.996620e-01
2.178922e-01
1.996620e-01
1.581159e-01
1.441520e-01
1.581159e-01
1.441520e-01
1.029126e-01
9.364990e-02
1.029126e-01
9.364990e-02
5.072736e-02
4.616961e-02
5.072736e-02
4.616961e-02
0.000000e+00
0.000000e+00
</DataArray>
<DataArray type="Float32" Name="V4" format="ascii">
8.500000e-01
1.000000e+00
8.500000e-01
1.000000e+00
8.500000e-01
1.000000e+00
8.500000e-01
1.000000e+00
8.500000e-01
1.000000e+00
8.500000e-01
1.000000e+00
8.500000e-01
1.000000e+00
8.500000e-01
1.000000e+00
8.500000e-01
1.000000e+00
8.500000e-01
1.000000e+00
8.500000e-01
1.000000e+00
8.500000e-01
1.000000e+00
8.500000e-01
1.000000e+00
8.500000e-01
1.000000e+00
8.500000e-01
1.000000e+00
8.500000e-01
1.000000e+00
8.500000e-01
1.000000e+00
8.500000e-01
1.000000e+00
8.500000e-01
1.000000e+00
8.500000e-01
1.000000e+00
8.500000e-01
1.000000e+00
8.500000e-01
1.000000e+00
8.500000e-01
1.000000e+00
8.500000e-01
1.000000e+00
8.500000e-01
1.000000e+00
8.500000e-01
1.000000e+00
8.500000e-01
1.000000e+00
8.500000e-01
1.000000e+00
8.500000e-01
1.000000e+00
8.500000e-01
1.000000e+00
8.500000e-01
1.000000e+00
8.500000e-01
1.000000e+00
8.500000e-01
1.000000e+00
8.500000e-01
1.000000e+00
8.500000e-01
1.000000e+00
8.500000e-01
1.000000e+00
8.500000e-01
1.000000e+00
8.500000e-01
1.000000e+00
8.500000e-01
1.000000e+00
8.500000e-01
1.000000e+00
8.500000e-01
1.000000e+00
8.500000e-01
1.000000e+00
8.500000e-01
1.000000e+00
8.500000e-01
1.000000e+00
8.500000e-01
1.000000e+00
8.500000e-01
1.000000e+00
8.500000e-01
1.000000e+00
8.500000e-01
1.000000e+00
8.500000e-01
1.000000e+00
8.500000e-01
1.000000e+00
8.500000e-01
1.000000e+00
8.500000e-01
1.000000e+00
8.500000e-01
1.000000e+00
8.500000e-01
1.000000e+00
8.500000e-01
1.000000e+00
8.500000e-01
1.000000e+00
8.500000e-01
1.000000e+00
8.500000e-01
1.000000e+00
8.500000e-01
1.000000e+00
8.500000e-01
1.000000e+00
</DataArray>
<DataArray type="Float32" Name="V5" format="ascii">
0.000000e+00
0.000000e+00
5.235988e-02
5.235988e-02
5.235988e-02
5.235988e-02
1.047198e-01
1.047198e-01
1.047198e-01
1.047198e-01
1.570796e-01
1.570796e-01
1.570796e-01
1.570796e-01
2.094395e-01
2.094395e-01
2.094395e-01
2.094395e-01
2.617994e-01
2.617994e-01
2.617994e-01
2.617994e-01
3.141593e-01
3.141593e-01
3.141593e-01
3.141593e-01
3.665191e-01
3.665191e-01
3.665191e-01
3.665191e-01
4.188790e-01
4.188790e-01
4.188790e-01
4.188790e-01
4.712389e-01
4.712389e-01
4.712389e-01
4.712389e-01
5.235988e-01
5.235988e-01
5.235988e-01
5.235988e-01
5.759587e-01
5.759587e-01
5.759587e-01
5.759587e-01
6.283185e-01
6.283185e-01
6.283185e-01
6.283185e-01
6.806784e-01
6.806784e-01
6.806784e-01
6.806784e-01
7.330383e-01
7.330383e-01
7.330383e-01
7.330383e-01
7.853982e-01
7.853982e-01
7.853982e-01
7.853982e-01
8.377580e-01
8.377580e-01
8.377580e-01
8.377580e-01
8.901179e-01
8.901179e-01
8.901179e-01
8.901179e-01
9.424778e-01
9.424778e-01
9.424778e-01
9.424778e-01
9.948377e-01
9.948377e-01
9.948377e-01
9.948377e-01
1.047198e+00
1.047198e+00
1.047198e+00
1.047198e+00
1.099557e+00
1.099557e+00
1.099557e+00
1.099557e+00
1.151917e+00
1.151917e+00
1.151917e+00
1.151917e+00
1.204277e+00
1.204277e+00
1.204277e+00
1.204277e+00
1.256637e+00
1.256637e+00
1.256637e+00
1.256637e+00
1.308997e+00
1.308997e+00
1.308997e+00
1.308997e+00
1.361357e+00
1.361357e+00
1.361357e+00
1.361357e+00
1.413717e+00
1.413717e+00
1.413717e+00
1.413717e+00
1.466077e+00
1.466077e+00
1.466077e+00
1.466077e+00
1.518436e+00
1.518436e+00
1.518436e+00
1.518436e+00
1.570796e+00
1.570796e+00
</DataArray>
</PointData>
</Piece></UnstructuredGrid>
</VTKFile>
