<?xml version="1.0"?>
<VTKFile type="UnstructuredGrid" version="0.1" byte_order="LittleEndian" compressor="vtkZLibDataCompressor">
<UnstructuredGrid>
<Piece NumberOfPoints="120" NumberOfCells="30">
<Points>
<DataArray type="Float32" NumberOfComponents="3" format="ascii">
0.000000e+00 6.253613e-01 0.000000e+00
0.000000e+00 7.200000e-01 0.000000e+00
6.110050e-02 6.254119e-01 0.000000e+00
6.100704e-02 7.200000e-01 0.000000e+00
6.110050e-02 6.254119e-01 0.000000e+00
6.100704e-02 7.200000e-01 0.000000e+00
1.221986e-01 6.255324e-01 0.000000e+00
1.220112e-01 7.200000e-01 0.000000e+00
1.221986e-01 6.255324e-01 0.000000e+00
1.220112e-01 7.200000e-01 0.000000e+00
1.832890e-01 6.257334e-01 0.000000e+00
1.830110e-01 7.200000e-01 0.000000e+00
1.832890e-01 6.257334e-01 0.000000e+00
1.830110e-01 7.200000e-01 0.000000e+00
2.443675e-01 6.260142e-01 0.000000e+00
2.440046e-01 7.200000e-01 0.000000e+00
2.443675e-01 6.260142e-01 0.000000e+00
2.440046e-01 7.200000e-01 0.000000e+00
3.054284e-01 6.263746e-01 0.000000e+00
3.049919e-01 7.200000e-01 0.000000e+00
3.054284e-01 6.263746e-01 0.000000e+00
3.049919e-01 7.200000e-01 0.000000e+00
3.664637e-01 6.268150e-01 0.000000e+00
3.659764e-01 7.200000e-01 0.000000e+00
3.664637e-01 6.268150e-01 0.000000e+00
3.659764e-01 7.200000e-01 0.000000e+00
4.274611e-01 6.273367e-01 0.000000e+00
4.269686e-01 7.200000e-01 0.000000e+00
4.274611e-01 6.273367e-01 0.000000e+00
4.269686e-01 7.200000e-01 0.000000e+00
4.884000e-01 6.279435e-01 0.000000e+00
4.879935e-01 7.200000e-01 0.000000e+00
4.884000e-01 6.279435e-01 0.000000e+00
4.879935e-01 7.200000e-01 0.000000e+00
5.492439e-01 6.286420e-01 0.000000e+00
5.491031e-01 7.200000e-01 0.000000e+00
5.492439e-01 6.286420e-01 0.000000e+00
5.491031e-01 7.200000e-01 0.000000e+00
6.099244e-01 6.294416e-01 0.000000e+00
6.103980e-01 7.200000e-01 0.000000e+00
6.099244e-01 6.294416e-01 0.000000e+00
6.103980e-01 7.200000e-01 0.000000e+00
6.703100e-01 6.303459e-01 0.000000e+00
6.720555e-01 7.200000e-01 0.000000e+00
6.703100e-01 6.303459e-01 0.000000e+00
6.720555e-01 7.200000e-01 0.000000e+00
7.301451e-01 6.313183e-01 0.000000e+00
7.343477e-01 7.200000e-01 0.000000e+00
7.301451e-01 6.313183e-01 0.000000e+00
7.343477e-01 7.200000e-01 0.000000e+00
7.889374e-01 6.321171e-01 0.000000e+00
7.975610e-01 7.200000e-01 0.000000e+00
7.889374e-01 6.321171e-01 0.000000e+00
7.975610e-01 7.200000e-01 0.000000e+00
8.462149e-01 6.322753e-01 0.000000e+00
8.611342e-01 7.200000e-01 0.000000e+00
8.462149e-01 6.322753e-01 0.000000e+00
8.611342e-01 7.200000e-01 0.000000e+00
9.023193e-01 6.281798e-01 0.000000e+00
9.231186e-01 7.144294e-01 0.000000e+00
9.023193e-01 6.281798e-01 0.000000e+00
9.231186e-01 7.144294e-01 0.000000e+00
9.558911e-01 6.162927e-01 0.000000e+00
9.841901e-01 6.990622e-01 0.000000e+00
9.558911e-01 6.162927e-01 0.000000e+00
9.841901e-01 6.990622e-01 0.000000e+00
1.006985e+00 5.976169e-01 0.000000e+00
1.043399e+00 6.759981e-01 0.000000e+00
1.006985e+00 5.976169e-01 0.000000e+00
1.043399e+00 6.759981e-01 0.000000e+00
1.055300e+00 5.726196e-01 0.000000e+00
1.099472e+00 6.458605e-01 0.000000e+00
1.055300e+00 5.726196e-01 0.000000e+00
1.099472e+00 6.458605e-01 0.000000e+00
1.100530e+00 5.420518e-01 0.000000e+00
1.151699e+00 6.096043e-01 0.000000e+00
1.100530e+00 5.420518e-01 0.000000e+00
1.151699e+00 6.096043e-01 0.000000e+00
1.142395e+00 5.065859e-01 0.000000e+00
1.199670e+00 5.681140e-01 0.000000e+00
1.142395e+00 5.065859e-01 0.000000e+00
1.199670e+00 5.681140e-01 0.000000e+00
1.180678e+00 4.668593e-01 0.000000e+00
1.243176e+00 5.221867e-01 0.000000e+00
1.180678e+00 4.668593e-01 0.000000e+00
1.243176e+00 5.221867e-01 0.000000e+00
1.215213e+00 4.234577e-01 0.000000e+00
1.282117e+00 4.725156e-01 0.000000e+00
1.215213e+00 4.234577e-01 0.000000e+00
1.282117e+00 4.725156e-01 0.000000e+00
1.245877e+00 3.769161e-01 0.000000e+00
1.316454e+00 4.197012e-01 0.000000e+00
1.245877e+00 3.769161e-01 0.000000e+00
1.316454e+00 4.197012e-01 0.000000e+00
1.272581e+00 3.277231e-01 0.000000e+00
1.346181e+00 3.642675e-01 0.000000e+00
1.272581e+00 3.277231e-01 0.000000e+00
1.346181e+00 3.642675e-01 0.000000e+00
1.295259e+00 2.763270e-01 0.000000e+00
1.371304e+00 3.066783e-01 0.000000e+00
1.295259e+00 2.763270e-01 0.000000e+00
1.371304e+00 3.066783e-01 0.000000e+00
1.313864e+00 2.231423e-01 0.000000e+00
1.391837e+00 2.473513e-01 0.000000e+00
1.313864e+00 2.231423e-01 0.000000e+00
1.391837e+00 2.473513e-01 0.000000e+00
1.328365e+00 1.685569e-01 0.000000e+00
1.407791e+00 1.866696e-01 0.000000e+00
1.328365e+00 1.685569e-01 0.000000e+00
1.407791e+00 1.866696e-01 0.000000e+00
1.338738e+00 1.129380e-01 0.000000e+00
1.419179e+00 1.249916e-01 0.000000e+00
1.338738e+00 1.129380e-01 0.000000e+00
1.419179e+00 1.249916e-01 0.000000e+00
1.344967e+00 5.663811e-02 0.000000e+00
1.426009e+00 6.265832e-02 0.000000e+00
1.344967e+00 5.663811e-02 0.000000e+00
1.426009e+00 6.265832e-02 0.000000e+00
1.347044e+00 6.595920e-12 0.000000e+00
1.428284e+00 6.993720e-12 0.000000e+00
</DataArray>
</Points>
<Cells>
<DataArray type="Int32" Name="connectivity" format="ascii">
0 1 3 2
4 5 7 6
8 9 11 10
12 13 15 14
16 17 19 18
20 21 23 22
24 25 27 26
28 29 31 30
32 33 35 34
36 37 39 38
40 41 43 42
44 45 47 46
48 49 51 50
52 53 55 54
56 57 59 58
60 61 63 62
64 65 67 66
68 69 71 70
72 73 75 74
76 77 79 78
80 81 83 82
84 85 87 86
88 89 91 90
92 93 95 94
96 97 99 98
100 101 103 102
104 105 107 106
108 109 111 110
112 113 115 114
116 117 119 118
</DataArray>
<DataArray type="Int32" Name="offsets" format="ascii">
4
8
12
16
20
24
28
32
36
40
44
48
52
56
60
64
68
72
76
80
84
88
92
96
100
104
108
112
116
120
</DataArray>
<DataArray type="UInt8" Name="types" format="ascii">
9
9
9
9
9
9
9
9
9
9
9
9
9
9
9
9
9
9
9
9
9
9
9
9
9
9
9
9
9
9
</DataArray>
</Cells>
<PointData>
<DataArray type="Float32" Name="V1" format="ascii">
1.945832e+01
-7.410874e-01
1.948417e+01
-7.152443e-01
1.952261e+01
-7.408720e-01
1.959244e+01
-6.710424e-01
1.967130e+01
-7.232112e-01
1.978960e+01
-6.049070e-01
1.990771e+01
-6.842214e-01
2.007572e+01
-5.162144e-01
2.023349e+01
-6.229162e-01
2.045306e+01
-4.033419e-01
2.064993e+01
-5.371579e-01
2.092373e+01
-2.633646e-01
2.115663e+01
-4.226006e-01
2.148832e+01
-9.090431e-02
2.174838e+01
-2.704355e-01
2.214326e+01
1.244409e-01
2.240909e+01
-6.266993e-02
2.287524e+01
4.034834e-01
2.309961e+01
2.377288e-01
2.365054e+01
7.886630e-01
2.373526e+01
7.072763e-01
2.439514e+01
1.367157e+00
2.414667e+01
1.504597e+00
2.496187e+01
2.319801e+00
2.401903e+01
2.950073e+00
2.511273e+01
4.043773e+00
2.275904e+01
5.902477e+00
2.445475e+01
7.598179e+00
2.104422e+01
1.087587e+01
2.278421e+01
1.261587e+01
2.106194e+01
1.358911e+01
2.212811e+01
1.465528e+01
2.168959e+01
1.501443e+01
2.274301e+01
1.606786e+01
2.279944e+01
1.603146e+01
2.381825e+01
1.705027e+01
2.414648e+01
1.678559e+01
2.510409e+01
1.774320e+01
2.555724e+01
1.737246e+01
2.643364e+01
1.824886e+01
2.693124e+01
1.784345e+01
2.771669e+01
1.862890e+01
2.821057e+01
1.823020e+01
2.890193e+01
1.892156e+01
2.936432e+01
1.855222e+01
2.996247e+01
1.915037e+01
3.037779e+01
1.882200e+01
3.088567e+01
1.932988e+01
3.124571e+01
1.904780e+01
3.166709e+01
1.946919e+01
3.196800e+01
1.923524e+01
3.230673e+01
1.957397e+01
3.254711e+01
1.938824e+01
3.280668e+01
1.964781e+01
3.298638e+01
1.950962e+01
3.316965e+01
1.969289e+01
3.328905e+01
1.960138e+01
3.339815e+01
1.971048e+01
3.345772e+01
1.966492e+01
3.349394e+01
1.970114e+01
</DataArray>
<DataArray type="Float32" Name="V2" format="ascii">
6.253613e-01
7.200000e-01
6.277525e-01
7.222061e-01
6.277525e-01
7.222061e-01
6.348789e-01
7.288094e-01
6.348789e-01
7.288094e-01
6.467023e-01
7.397648e-01
6.467023e-01
7.397648e-01
6.631412e-01
7.549977e-01
6.631412e-01
7.549977e-01
6.840821e-01
7.744043e-01
6.840821e-01
7.744043e-01
7.093800e-01
7.978536e-01
7.093800e-01
7.978536e-01
7.388576e-01
8.251898e-01
7.388576e-01
8.251898e-01
7.723051e-01
8.562376e-01
7.723051e-01
8.562376e-01
8.094757e-01
8.908123e-01
8.094757e-01
8.908123e-01
8.500746e-01
9.287373e-01
8.500746e-01
9.287373e-01
8.937295e-01
9.698705e-01
8.937295e-01
9.698705e-01
9.399158e-01
1.014131e+00
9.399158e-01
1.014131e+00
9.877417e-01
1.061466e+00
9.877417e-01
1.061466e+00
1.036100e+00
1.111276e+00
1.036100e+00
1.111276e+00
1.082226e+00
1.157921e+00
1.082226e+00
1.157921e+00
1.122746e+00
1.199160e+00
1.122746e+00
1.199160e+00
1.158667e+00
1.236293e+00
1.158667e+00
1.236293e+00
1.190333e+00
1.269119e+00
1.190333e+00
1.269119e+00
1.218204e+00
1.297910e+00
1.218204e+00
1.297910e+00
1.242636e+00
1.323002e+00
1.242636e+00
1.323002e+00
1.263942e+00
1.344746e+00
1.263942e+00
1.344746e+00
1.282388e+00
1.363462e+00
1.282388e+00
1.363462e+00
1.298201e+00
1.379424e+00
1.298201e+00
1.379424e+00
1.311568e+00
1.392859e+00
1.311568e+00
1.392859e+00
1.322642e+00
1.403953e+00
1.322642e+00
1.403953e+00
1.331547e+00
1.412849e+00
1.331547e+00
1.412849e+00
1.338379e+00
1.419661e+00
1.338379e+00
1.419661e+00
1.343209e+00
1.424470e+00
1.343209e+00
1.424470e+00
1.346088e+00
1.427334e+00
1.346088e+00
1.427334e+00
1.347044e+00
1.428284e+00
</DataArray>
<DataArray type="Float32" Name="V3" format="ascii">
0.000000e+00
0.000000e+00
2.828523e-02
2.324154e-02
2.828523e-02
2.324154e-02
5.614323e-02
4.608233e-02
5.614323e-02
4.608233e-02
8.314615e-02
6.812501e-02
8.314615e-02
6.812501e-02
1.088718e-01
8.897605e-02
1.088718e-01
8.897605e-02
1.329035e-01
1.082498e-01
1.329035e-01
1.082498e-01
1.548312e-01
1.255720e-01
1.548312e-01
1.255720e-01
1.742519e-01
1.405846e-01
1.742519e-01
1.405846e-01
1.907680e-01
1.529539e-01
1.907680e-01
1.529539e-01
2.039824e-01
1.623813e-01
2.039824e-01
1.623813e-01
2.134892e-01
1.686201e-01
2.134892e-01
1.686201e-01
2.188583e-01
1.714931e-01
2.188583e-01
1.714931e-01
2.196202e-01
1.708944e-01
2.196202e-01
1.708944e-01
2.153153e-01
1.667106e-01
2.153153e-01
1.667106e-01
2.057854e-01
1.581734e-01
2.057854e-01
1.581734e-01
1.938460e-01
1.475656e-01
1.938460e-01
1.475656e-01
1.816213e-01
1.390473e-01
1.816213e-01
1.390473e-01
1.692806e-01
1.312832e-01
1.692806e-01
1.312832e-01
1.570311e-01
1.237412e-01
1.570311e-01
1.237412e-01
1.447886e-01
1.160029e-01
1.447886e-01
1.160029e-01
1.324813e-01
1.078339e-01
1.324813e-01
1.078339e-01
1.200420e-01
9.911839e-02
1.200420e-01
9.911839e-02
1.074240e-01
8.981952e-02
1.074240e-01
8.981952e-02
9.460107e-02
7.995028e-02
9.460107e-02
7.995028e-02
8.156587e-02
6.955386e-02
8.156587e-02
6.955386e-02
6.832621e-02
5.869119e-02
6.832621e-02
5.869119e-02
5.490162e-02
4.743309e-02
5.490162e-02
4.743309e-02
4.132035e-02
3.585570e-02
4.132035e-02
3.585570e-02
2.761681e-02
2.403774e-02
2.761681e-02
2.403774e-02
1.382963e-02
1.205908e-02
1.382963e-02
1.205908e-02
0.000000e+00
0.000000e+00
</DataArray>
<DataArray type="Float32" Name="V4" format="ascii">
8.500000e-01
1.000000e+00
8.500000e-01
1.000000e+00
8.500000e-01
1.000000e+00
8.500000e-01
1.000000e+00
8.500000e-01
1.000000e+00
8.500000e-01
1.000000e+00
8.500000e-01
1.000000e+00
8.500000e-01
1.000000e+00
8.500000e-01
1.000000e+00
8.500000e-01
1.000000e+00
8.500000e-01
1.000000e+00
8.500000e-01
1.000000e+00
8.500000e-01
1.000000e+00
8.500000e-01
1.000000e+00
8.500000e-01
1.000000e+00
8.500000e-01
1.000000e+00
8.500000e-01
1.000000e+00
8.500000e-01
1.000000e+00
8.500000e-01
1.000000e+00
8.500000e-01
1.000000e+00
8.500000e-01
1.000000e+00
8.500000e-01
1.000000e+00
8.500000e-01
1.000000e+00
8.500000e-01
1.000000e+00
8.500000e-01
1.000000e+00
8.500000e-01
1.000000e+00
8.500000e-01
1.000000e+00
8.500000e-01
1.000000e+00
8.500000e-01
1.000000e+00
8.500000e-01
1.000000e+00
8.500000e-01
1.000000e+00
8.500000e-01
1.000000e+00
8.500000e-01
1.000000e+00
8.500000e-01
1.000000e+00
8.500000e-01
1.000000e+00
8.500000e-01
1.000000e+00
8.500000e-01
1.000000e+00
8.500000e-01
1.000000e+00
8.500000e-01
1.000000e+00
8.500000e-01
1.000000e+00
8.500000e-01
1.000000e+00
8.500000e-01
1.000000e+00
8.500000e-01
1.000000e+00
8.500000e-01
1.000000e+00
8.500000e-01
1.000000e+00
8.500000e-01
1.000000e+00
8.500000e-01
1.000000e+00
8.500000e-01
1.000000e+00
8.500000e-01
1.000000e+00
8.500000e-01
1.000000e+00
8.500000e-01
1.000000e+00
8.500000e-01
1.000000e+00
8.500000e-01
1.000000e+00
8.500000e-01
1.000000e+00
8.500000e-01
1.000000e+00
8.500000e-01
1.000000e+00
8.500000e-01
1.000000e+00
8.500000e-01
1.000000e+00
8.500000e-01
1.000000e+00
8.500000e-01
1.000000e+00
</DataArray>
<DataArray type="Float32" Name="V5" format="ascii">
0.000000e+00
0.000000e+00
5.235988e-02
5.235988e-02
5.235988e-02
5.235988e-02
1.047198e-01
1.047198e-01
1.047198e-01
1.047198e-01
1.570796e-01
1.570796e-01
1.570796e-01
1.570796e-01
2.094395e-01
2.094395e-01
2.094395e-01
2.094395e-01
2.617994e-01
2.617994e-01
2.617994e-01
2.617994e-01
3.141593e-01
3.141593e-01
3.141593e-01
3.141593e-01
3.665191e-01
3.665191e-01
3.665191e-01
3.665191e-01
4.188790e-01
4.188790e-01
4.188790e-01
4.188790e-01
4.712389e-01
4.712389e-01
4.712389e-01
4.712389e-01
5.235988e-01
5.235988e-01
5.235988e-01
5.235988e-01
5.759587e-01
5.759587e-01
5.759587e-01
5.759587e-01
6.283185e-01
6.283185e-01
6.283185e-01
6.283185e-01
6.806784e-01
6.806784e-01
6.806784e-01
6.806784e-01
7.330383e-01
7.330383e-01
7.330383e-01
7.330383e-01
7.853982e-01
7.853982e-01
7.853982e-01
7.853982e-01
8.377580e-01
8.377580e-01
8.377580e-01
8.377580e-01
8.901179e-01
8.901179e-01
8.901179e-01
8.901179e-01
9.424778e-01
9.424778e-01
9.424778e-01
9.424778e-01
9.948377e-01
9.948377e-01
9.948377e-01
9.948377e-01
1.047198e+00
1.047198e+00
1.047198e+00
1.047198e+00
1.099557e+00
1.099557e+00
1.099557e+00
1.099557e+00
1.151917e+00
1.151917e+00
1.151917e+00
1.151917e+00
1.204277e+00
1.204277e+00
1.204277e+00
1.204277e+00
1.256637e+00
1.256637e+00
1.256637e+00
1.256637e+00
1.308997e+00
1.308997e+00
1.308997e+00
1.308997e+00
1.361357e+00
1.361357e+00
1.361357e+00
1.361357e+00
1.413717e+00
1.413717e+00
1.413717e+00
1.413717e+00
1.466077e+00
1.466077e+00
1.466077e+00
1.466077e+00
1.518436e+00
1.518436e+00
1.518436e+00
1.518436e+00
1.570796e+00
1.570796e+00
</DataArray>
</PointData>
</Piece></UnstructuredGrid>
</VTKFile>
