<?xml version="1.0"?>
<VTKFile type="UnstructuredGrid" version="0.1" byte_order="LittleEndian" compressor="vtkZLibDataCompressor">
<UnstructuredGrid>
<Piece NumberOfPoints="120" NumberOfCells="30">
<Points>
<DataArray type="Float32" NumberOfComponents="3" format="ascii">
0.000000e+00 5.387551e-01 0.000000e+00
0.000000e+00 6.200000e-01 0.000000e+00
6.592477e-02 5.387999e-01 0.000000e+00
6.585603e-02 6.200000e-01 0.000000e+00
6.592477e-02 5.387999e-01 0.000000e+00
6.585603e-02 6.200000e-01 0.000000e+00
1.318439e-01 5.388948e-01 0.000000e+00
1.317055e-01 6.200000e-01 0.000000e+00
1.318439e-01 5.388948e-01 0.000000e+00
1.317055e-01 6.200000e-01 0.000000e+00
1.977488e-01 5.390529e-01 0.000000e+00
1.975423e-01 6.200000e-01 0.000000e+00
1.977488e-01 5.390529e-01 0.000000e+00
1.975423e-01 6.200000e-01 0.000000e+00
2.636320e-01 5.392736e-01 0.000000e+00
2.633598e-01 6.200000e-01 0.000000e+00
2.636320e-01 5.392736e-01 0.000000e+00
2.633598e-01 6.200000e-01 0.000000e+00
3.294857e-01 5.395559e-01 0.000000e+00
3.291513e-01 6.200000e-01 0.000000e+00
3.294857e-01 5.395559e-01 0.000000e+00
3.291513e-01 6.200000e-01 0.000000e+00
3.953008e-01 5.398990e-01 0.000000e+00
3.949104e-01 6.200000e-01 0.000000e+00
3.953008e-01 5.398990e-01 0.000000e+00
3.949104e-01 6.200000e-01 0.000000e+00
4.610673e-01 5.403016e-01 0.000000e+00
4.606315e-01 6.200000e-01 0.000000e+00
4.610673e-01 5.403016e-01 0.000000e+00
4.606315e-01 6.200000e-01 0.000000e+00
5.267730e-01 5.407628e-01 0.000000e+00
5.263103e-01 6.200000e-01 0.000000e+00
5.267730e-01 5.407628e-01 0.000000e+00
5.263103e-01 6.200000e-01 0.000000e+00
5.924023e-01 5.412817e-01 0.000000e+00
5.919462e-01 6.200000e-01 0.000000e+00
5.924023e-01 5.412817e-01 0.000000e+00
5.919462e-01 6.200000e-01 0.000000e+00
6.579347e-01 5.418577e-01 0.000000e+00
6.575458e-01 6.200000e-01 0.000000e+00
6.579347e-01 5.418577e-01 0.000000e+00
6.575458e-01 6.200000e-01 0.000000e+00
7.233400e-01 5.424914e-01 0.000000e+00
7.231299e-01 6.200000e-01 0.000000e+00
7.233400e-01 5.424914e-01 0.000000e+00
7.231299e-01 6.200000e-01 0.000000e+00
7.885719e-01 5.431842e-01 0.000000e+00
7.887454e-01 6.200000e-01 0.000000e+00
7.885719e-01 5.431842e-01 0.000000e+00
7.887454e-01 6.200000e-01 0.000000e+00
8.535524e-01 5.439387e-01 0.000000e+00
8.544873e-01 6.200000e-01 0.000000e+00
8.535524e-01 5.439387e-01 0.000000e+00
8.544873e-01 6.200000e-01 0.000000e+00
9.181432e-01 5.447548e-01 0.000000e+00
9.205306e-01 6.200000e-01 0.000000e+00
9.181432e-01 5.447548e-01 0.000000e+00
9.205306e-01 6.200000e-01 0.000000e+00
9.820827e-01 5.456103e-01 0.000000e+00
9.871646e-01 6.200000e-01 0.000000e+00
9.820827e-01 5.456103e-01 0.000000e+00
9.871646e-01 6.200000e-01 0.000000e+00
1.044845e+00 5.463347e-01 0.000000e+00
1.054735e+00 6.200000e-01 0.000000e+00
1.044845e+00 5.463347e-01 0.000000e+00
1.054735e+00 6.200000e-01 0.000000e+00
1.106035e+00 5.466523e-01 0.000000e+00
1.122150e+00 6.200000e-01 0.000000e+00
1.106035e+00 5.466523e-01 0.000000e+00
1.122150e+00 6.200000e-01 0.000000e+00
1.165644e+00 5.402838e-01 0.000000e+00
1.187258e+00 6.111193e-01 0.000000e+00
1.165644e+00 5.402838e-01 0.000000e+00
1.187258e+00 6.111193e-01 0.000000e+00
1.221985e+00 5.239990e-01 0.000000e+00
1.250713e+00 5.910762e-01 0.000000e+00
1.221985e+00 5.239990e-01 0.000000e+00
1.250713e+00 5.910762e-01 0.000000e+00
1.274678e+00 4.993566e-01 0.000000e+00
1.310859e+00 5.616892e-01 0.000000e+00
1.274678e+00 4.993566e-01 0.000000e+00
1.310859e+00 5.616892e-01 0.000000e+00
1.323216e+00 4.674120e-01 0.000000e+00
1.366318e+00 5.242197e-01 0.000000e+00
1.323216e+00 4.674120e-01 0.000000e+00
1.366318e+00 5.242197e-01 0.000000e+00
1.367215e+00 4.292585e-01 0.000000e+00
1.416351e+00 4.800240e-01 0.000000e+00
1.367215e+00 4.292585e-01 0.000000e+00
1.416351e+00 4.800240e-01 0.000000e+00
1.406390e+00 3.858756e-01 0.000000e+00
1.460589e+00 4.303165e-01 0.000000e+00
1.406390e+00 3.858756e-01 0.000000e+00
1.460589e+00 4.303165e-01 0.000000e+00
1.440550e+00 3.381466e-01 0.000000e+00
1.498881e+00 3.761465e-01 0.000000e+00
1.440550e+00 3.381466e-01 0.000000e+00
1.498881e+00 3.761465e-01 0.000000e+00
1.469570e+00 2.868630e-01 0.000000e+00
1.531193e+00 3.184079e-01 0.000000e+00
1.469570e+00 2.868630e-01 0.000000e+00
1.531193e+00 3.184079e-01 0.000000e+00
1.493374e+00 2.327358e-01 0.000000e+00
1.557546e+00 2.578654e-01 0.000000e+00
1.493374e+00 2.327358e-01 0.000000e+00
1.557546e+00 2.578654e-01 0.000000e+00
1.511916e+00 1.764103e-01 0.000000e+00
1.577979e+00 1.951845e-01 0.000000e+00
1.511916e+00 1.764103e-01 0.000000e+00
1.577979e+00 1.951845e-01 0.000000e+00
1.525172e+00 1.184796e-01 0.000000e+00
1.592538e+00 1.309575e-01 0.000000e+00
1.525172e+00 1.184796e-01 0.000000e+00
1.592538e+00 1.309575e-01 0.000000e+00
1.533129e+00 5.949919e-02 0.000000e+00
1.601258e+00 6.572608e-02 0.000000e+00
1.533129e+00 5.949919e-02 0.000000e+00
1.601258e+00 6.572608e-02 0.000000e+00
1.535782e+00 7.520090e-12 0.000000e+00
1.604162e+00 7.854920e-12 0.000000e+00
</DataArray>
</Points>
<Cells>
<DataArray type="Int32" Name="connectivity" format="ascii">
0 1 3 2
4 5 7 6
8 9 11 10
12 13 15 14
16 17 19 18
20 21 23 22
24 25 27 26
28 29 31 30
32 33 35 34
36 37 39 38
40 41 43 42
44 45 47 46
48 49 51 50
52 53 55 54
56 57 59 58
60 61 63 62
64 65 67 66
68 69 71 70
72 73 75 74
76 77 79 78
80 81 83 82
84 85 87 86
88 89 91 90
92 93 95 94
96 97 99 98
100 101 103 102
104 105 107 106
108 109 111 110
112 113 115 114
116 117 119 118
</DataArray>
<DataArray type="Int32" Name="offsets" format="ascii">
4
8
12
16
20
24
28
32
36
40
44
48
52
56
60
64
68
72
76
80
84
88
92
96
100
104
108
112
116
120
</DataArray>
<DataArray type="UInt8" Name="types" format="ascii">
9
9
9
9
9
9
9
9
9
9
9
9
9
9
9
9
9
9
9
9
9
9
9
9
9
9
9
9
9
9
</DataArray>
</Cells>
<PointData>
<DataArray type="Float32" Name="V1" format="ascii">
3.584215e+01
-1.196681e+00
3.588376e+01
-1.155070e+00
3.595369e+01
-1.199648e+00
3.606978e+01
-1.083561e+00
3.621182e+01
-1.175086e+00
3.640877e+01
-9.781352e-01
3.662220e+01
-1.117678e+00
3.690211e+01
-8.377660e-01
3.718901e+01
-1.026579e+00
3.755517e+01
-6.604207e-01
3.791793e+01
-9.000877e-01
3.837487e+01
-4.431534e-01
3.881584e+01
-7.354007e-01
3.936951e+01
-1.817322e-01
3.989022e+01
-5.279917e-01
4.054833e+01
1.301136e-01
4.114790e+01
-2.704058e-01
4.192042e+01
5.021144e-01
4.259243e+01
5.003385e-02
4.349254e+01
9.501415e-01
4.421878e+01
4.556879e-01
4.526445e+01
1.501349e+00
4.600283e+01
9.873467e-01
4.721959e+01
2.204103e+00
4.788089e+01
1.721700e+00
4.930642e+01
3.147227e+00
4.971077e+01
2.807146e+00
5.140121e+01
4.497590e+00
5.119979e+01
4.539201e+00
5.323795e+01
6.577358e+00
5.177165e+01
7.516571e+00
5.432384e+01
1.006876e+01
5.008370e+01
1.356334e+01
5.386085e+01
1.734049e+01
4.857260e+01
2.228469e+01
5.194012e+01
2.565221e+01
4.970678e+01
2.683800e+01
5.241013e+01
2.954135e+01
5.221852e+01
2.969207e+01
5.484260e+01
3.231615e+01
5.553609e+01
3.179126e+01
5.804228e+01
3.429745e+01
5.915711e+01
3.341994e+01
6.147820e+01
3.574102e+01
6.274420e+01
3.473343e+01
6.482844e+01
3.681767e+01
6.609038e+01
3.581494e+01
6.790804e+01
3.763261e+01
6.907355e+01
3.671253e+01
7.061077e+01
3.824975e+01
7.162559e+01
3.745492e+01
7.287826e+01
3.870759e+01
7.371126e+01
3.806002e+01
7.468039e+01
3.902915e+01
7.531444e+01
3.853931e+01
7.600316e+01
3.922803e+01
7.642929e+01
3.890033e+01
7.684092e+01
3.931197e+01
7.705483e+01
3.914793e+01
7.719175e+01
3.928486e+01
</DataArray>
<DataArray type="Float32" Name="V2" format="ascii">
5.387551e-01
6.200000e-01
5.415117e-01
6.225970e-01
5.415117e-01
6.225970e-01
5.497241e-01
6.303705e-01
5.497241e-01
6.303705e-01
5.633510e-01
6.432692e-01
5.633510e-01
6.432692e-01
5.823014e-01
6.612071e-01
5.823014e-01
6.612071e-01
6.064482e-01
6.840646e-01
6.064482e-01
6.840646e-01
6.356291e-01
7.116891e-01
6.356291e-01
7.116891e-01
6.696468e-01
7.438954e-01
6.696468e-01
7.438954e-01
7.082693e-01
7.804679e-01
7.082693e-01
7.804679e-01
7.512305e-01
8.211620e-01
7.512305e-01
8.211620e-01
7.982299e-01
8.657087e-01
7.982299e-01
8.657087e-01
8.489308e-01
9.138205e-01
8.489308e-01
9.138205e-01
9.029562e-01
9.652035e-01
9.029562e-01
9.652035e-01
9.598777e-01
1.019577e+00
9.598777e-01
1.019577e+00
1.019189e+00
1.076705e+00
1.019189e+00
1.076705e+00
1.080242e+00
1.136437e+00
1.080242e+00
1.136437e+00
1.142040e+00
1.198682e+00
1.142040e+00
1.198682e+00
1.203570e+00
1.262253e+00
1.203570e+00
1.262253e+00
1.260596e+00
1.319719e+00
1.260596e+00
1.319719e+00
1.310234e+00
1.370859e+00
1.310234e+00
1.370859e+00
1.353582e+00
1.416082e+00
1.353582e+00
1.416082e+00
1.391195e+00
1.455389e+00
1.391195e+00
1.455389e+00
1.423608e+00
1.489144e+00
1.423608e+00
1.489144e+00
1.451264e+00
1.517789e+00
1.451264e+00
1.517789e+00
1.474538e+00
1.541757e+00
1.474538e+00
1.541757e+00
1.493742e+00
1.561429e+00
1.493742e+00
1.561429e+00
1.509128e+00
1.577123e+00
1.509128e+00
1.577123e+00
1.520898e+00
1.589085e+00
1.520898e+00
1.589085e+00
1.529201e+00
1.597503e+00
1.529201e+00
1.597503e+00
1.534142e+00
1.602503e+00
1.534142e+00
1.602503e+00
1.535782e+00
1.604162e+00
</DataArray>
<DataArray type="Float32" Name="V3" format="ascii">
0.000000e+00
0.000000e+00
3.763582e-02
3.331748e-02
3.763582e-02
3.331748e-02
7.479183e-02
6.617635e-02
7.479183e-02
6.617635e-02
1.109877e-01
9.812088e-02
1.109877e-01
9.812088e-02
1.457497e-01
1.286995e-01
1.457497e-01
1.286995e-01
1.786113e-01
1.574679e-01
1.786113e-01
1.574679e-01
2.091155e-01
1.839916e-01
2.091155e-01
1.839916e-01
2.368167e-01
2.078484e-01
2.368167e-01
2.078484e-01
2.612830e-01
2.286316e-01
2.612830e-01
2.286316e-01
2.820976e-01
2.459538e-01
2.820976e-01
2.459538e-01
2.988593e-01
2.594514e-01
2.988593e-01
2.594514e-01
3.111820e-01
2.687915e-01
3.111820e-01
2.687915e-01
3.186924e-01
2.736816e-01
3.186924e-01
2.736816e-01
3.210230e-01
2.738827e-01
3.210230e-01
2.738827e-01
3.178012e-01
2.692265e-01
3.178012e-01
2.692265e-01
3.086326e-01
2.596246e-01
3.086326e-01
2.596246e-01
2.931317e-01
2.450056e-01
2.931317e-01
2.450056e-01
2.712219e-01
2.243615e-01
2.712219e-01
2.243615e-01
2.480493e-01
2.034468e-01
2.480493e-01
2.034468e-01
2.260785e-01
1.854689e-01
2.260785e-01
1.854689e-01
2.048835e-01
1.689924e-01
2.048835e-01
1.689924e-01
1.842604e-01
1.532122e-01
1.842604e-01
1.532122e-01
1.639492e-01
1.375580e-01
1.639492e-01
1.375580e-01
1.437593e-01
1.216932e-01
1.437593e-01
1.216932e-01
1.235580e-01
1.054432e-01
1.235580e-01
1.054432e-01
1.032644e-01
8.874365e-02
1.032644e-01
8.874365e-02
8.283985e-02
7.160153e-02
8.283985e-02
7.160153e-02
6.227734e-02
5.406887e-02
6.227734e-02
5.406887e-02
4.159333e-02
3.622541e-02
4.159333e-02
3.622541e-02
2.082014e-02
1.816736e-02
2.082014e-02
1.816736e-02
0.000000e+00
0.000000e+00
</DataArray>
<DataArray type="Float32" Name="V4" format="ascii">
8.500000e-01
1.000000e+00
8.500000e-01
1.000000e+00
8.500000e-01
1.000000e+00
8.500000e-01
1.000000e+00
8.500000e-01
1.000000e+00
8.500000e-01
1.000000e+00
8.500000e-01
1.000000e+00
8.500000e-01
1.000000e+00
8.500000e-01
1.000000e+00
8.500000e-01
1.000000e+00
8.500000e-01
1.000000e+00
8.500000e-01
1.000000e+00
8.500000e-01
1.000000e+00
8.500000e-01
1.000000e+00
8.500000e-01
1.000000e+00
8.500000e-01
1.000000e+00
8.500000e-01
1.000000e+00
8.500000e-01
1.000000e+00
8.500000e-01
1.000000e+00
8.500000e-01
1.000000e+00
8.500000e-01
1.000000e+00
8.500000e-01
1.000000e+00
8.500000e-01
1.000000e+00
8.500000e-01
1.000000e+00
8.500000e-01
1.000000e+00
8.500000e-01
1.000000e+00
8.500000e-01
1.000000e+00
8.500000e-01
1.000000e+00
8.500000e-01
1.000000e+00
8.500000e-01
1.000000e+00
8.500000e-01
1.000000e+00
8.500000e-01
1.000000e+00
8.500000e-01
1.000000e+00
8.500000e-01
1.000000e+00
8.500000e-01
1.000000e+00
8.500000e-01
1.000000e+00
8.500000e-01
1.000000e+00
8.500000e-01
1.000000e+00
8.500000e-01
1.000000e+00
8.500000e-01
1.000000e+00
8.500000e-01
1.000000e+00
8.500000e-01
1.000000e+00
8.500000e-01
1.000000e+00
8.500000e-01
1.000000e+00
8.500000e-01
1.000000e+00
8.500000e-01
1.000000e+00
8.500000e-01
1.000000e+00
8.500000e-01
1.000000e+00
8.500000e-01
1.000000e+00
8.500000e-01
1.000000e+00
8.500000e-01
1.000000e+00
8.500000e-01
1.000000e+00
8.500000e-01
1.000000e+00
8.500000e-01
1.000000e+00
8.500000e-01
1.000000e+00
8.500000e-01
1.000000e+00
8.500000e-01
1.000000e+00
8.500000e-01
1.000000e+00
8.500000e-01
1.000000e+00
8.500000e-01
1.000000e+00
</DataArray>
<DataArray type="Float32" Name="V5" format="ascii">
0.000000e+00
0.000000e+00
5.235988e-02
5.235988e-02
5.235988e-02
5.235988e-02
1.047198e-01
1.047198e-01
1.047198e-01
1.047198e-01
1.570796e-01
1.570796e-01
1.570796e-01
1.570796e-01
2.094395e-01
2.094395e-01
2.094395e-01
2.094395e-01
2.617994e-01
2.617994e-01
2.617994e-01
2.617994e-01
3.141593e-01
3.141593e-01
3.141593e-01
3.141593e-01
3.665191e-01
3.665191e-01
3.665191e-01
3.665191e-01
4.188790e-01
4.188790e-01
4.188790e-01
4.188790e-01
4.712389e-01
4.712389e-01
4.712389e-01
4.712389e-01
5.235988e-01
5.235988e-01
5.235988e-01
5.235988e-01
5.759587e-01
5.759587e-01
5.759587e-01
5.759587e-01
6.283185e-01
6.283185e-01
6.283185e-01
6.283185e-01
6.806784e-01
6.806784e-01
6.806784e-01
6.806784e-01
7.330383e-01
7.330383e-01
7.330383e-01
7.330383e-01
7.853982e-01
7.853982e-01
7.853982e-01
7.853982e-01
8.377580e-01
8.377580e-01
8.377580e-01
8.377580e-01
8.901179e-01
8.901179e-01
8.901179e-01
8.901179e-01
9.424778e-01
9.424778e-01
9.424778e-01
9.424778e-01
9.948377e-01
9.948377e-01
9.948377e-01
9.948377e-01
1.047198e+00
1.047198e+00
1.047198e+00
1.047198e+00
1.099557e+00
1.099557e+00
1.099557e+00
1.099557e+00
1.151917e+00
1.151917e+00
1.151917e+00
1.151917e+00
1.204277e+00
1.204277e+00
1.204277e+00
1.204277e+00
1.256637e+00
1.256637e+00
1.256637e+00
1.256637e+00
1.308997e+00
1.308997e+00
1.308997e+00
1.308997e+00
1.361357e+00
1.361357e+00
1.361357e+00
1.361357e+00
1.413717e+00
1.413717e+00
1.413717e+00
1.413717e+00
1.466077e+00
1.466077e+00
1.466077e+00
1.466077e+00
1.518436e+00
1.518436e+00
1.518436e+00
1.518436e+00
1.570796e+00
1.570796e+00
</DataArray>
</PointData>
</Piece></UnstructuredGrid>
</VTKFile>
