<?xml version="1.0"?>
<VTKFile type="UnstructuredGrid" version="0.1" byte_order="LittleEndian" compressor="vtkZLibDataCompressor">
<UnstructuredGrid>
<Piece NumberOfPoints="120" NumberOfCells="30">
<Points>
<DataArray type="Float32" NumberOfComponents="3" format="ascii">
0.000000e+00 9.123277e-01 0.000000e+00
0.000000e+00 1.020000e+00 0.000000e+00
5.701887e-02 9.124338e-01 0.000000e+00
5.751555e-02 1.020000e+00 0.000000e+00
5.701887e-02 9.124338e-01 0.000000e+00
5.751555e-02 1.020000e+00 0.000000e+00
1.139147e-01 9.127049e-01 0.000000e+00
1.152124e-01 1.020000e+00 0.000000e+00
1.139147e-01 9.127049e-01 0.000000e+00
1.152124e-01 1.020000e+00 0.000000e+00
1.705033e-01 9.131142e-01 0.000000e+00
1.733011e-01 1.020000e+00 0.000000e+00
1.705033e-01 9.131142e-01 0.000000e+00
1.733011e-01 1.020000e+00 0.000000e+00
2.264728e-01 9.134932e-01 0.000000e+00
2.319850e-01 1.020000e+00 0.000000e+00
2.264728e-01 9.134932e-01 0.000000e+00
2.319850e-01 1.020000e+00 0.000000e+00
2.813725e-01 9.133040e-01 0.000000e+00
2.912625e-01 1.020000e+00 0.000000e+00
2.813725e-01 9.133040e-01 0.000000e+00
2.912625e-01 1.020000e+00 0.000000e+00
3.354778e-01 9.116622e-01 0.000000e+00
3.502343e-01 1.018993e+00 0.000000e+00
3.354778e-01 9.116622e-01 0.000000e+00
3.502343e-01 1.018993e+00 0.000000e+00
3.884681e-01 9.057707e-01 0.000000e+00
4.088602e-01 1.011773e+00 0.000000e+00
3.884681e-01 9.057707e-01 0.000000e+00
4.088602e-01 1.011773e+00 0.000000e+00
4.401748e-01 8.957993e-01 0.000000e+00
4.672926e-01 9.996158e-01 0.000000e+00
4.401748e-01 8.957993e-01 0.000000e+00
4.672926e-01 9.996158e-01 0.000000e+00
4.908010e-01 8.816260e-01 0.000000e+00
5.248892e-01 9.827887e-01 0.000000e+00
4.908010e-01 8.816260e-01 0.000000e+00
5.248892e-01 9.827887e-01 0.000000e+00
5.402617e-01 8.635271e-01 0.000000e+00
5.811678e-01 9.616185e-01 0.000000e+00
5.402617e-01 8.635271e-01 0.000000e+00
5.811678e-01 9.616185e-01 0.000000e+00
5.884027e-01 8.417498e-01 0.000000e+00
6.357915e-01 9.364214e-01 0.000000e+00
5.884027e-01 8.417498e-01 0.000000e+00
6.357915e-01 9.364214e-01 0.000000e+00
6.350556e-01 8.165385e-01 0.000000e+00
6.885256e-01 9.075027e-01 0.000000e+00
6.350556e-01 8.165385e-01 0.000000e+00
6.885256e-01 9.075027e-01 0.000000e+00
6.800554e-01 7.881253e-01 0.000000e+00
7.391919e-01 8.751417e-01 0.000000e+00
6.800554e-01 7.881253e-01 0.000000e+00
7.391919e-01 8.751417e-01 0.000000e+00
7.232472e-01 7.567304e-01 0.000000e+00
7.876456e-01 8.395925e-01 0.000000e+00
7.232472e-01 7.567304e-01 0.000000e+00
7.876456e-01 8.395925e-01 0.000000e+00
7.644880e-01 7.225618e-01 0.000000e+00
8.337621e-01 8.010881e-01 0.000000e+00
7.644880e-01 7.225618e-01 0.000000e+00
8.337621e-01 8.010881e-01 0.000000e+00
8.036469e-01 6.858176e-01 0.000000e+00
8.774295e-01 7.598443e-01 0.000000e+00
8.036469e-01 6.858176e-01 0.000000e+00
8.774295e-01 7.598443e-01 0.000000e+00
8.406043e-01 6.466871e-01 0.000000e+00
9.185453e-01 7.160646e-01 0.000000e+00
8.406043e-01 6.466871e-01 0.000000e+00
9.185453e-01 7.160646e-01 0.000000e+00
8.752507e-01 6.053532e-01 0.000000e+00
9.570142e-01 6.699431e-01 0.000000e+00
8.752507e-01 6.053532e-01 0.000000e+00
9.570142e-01 6.699431e-01 0.000000e+00
9.074862e-01 5.619933e-01 0.000000e+00
9.927472e-01 6.216677e-01 0.000000e+00
9.074862e-01 5.619933e-01 0.000000e+00
9.927472e-01 6.216677e-01 0.000000e+00
9.372198e-01 5.167814e-01 0.000000e+00
1.025662e+00 5.714219e-01 0.000000e+00
9.372198e-01 5.167814e-01 0.000000e+00
1.025662e+00 5.714219e-01 0.000000e+00
9.643690e-01 4.698888e-01 0.000000e+00
1.055681e+00 5.193864e-01 0.000000e+00
9.643690e-01 4.698888e-01 0.000000e+00
1.055681e+00 5.193864e-01 0.000000e+00
9.888595e-01 4.214849e-01 0.000000e+00
1.082735e+00 4.657405e-01 0.000000e+00
9.888595e-01 4.214849e-01 0.000000e+00
1.082735e+00 4.657405e-01 0.000000e+00
1.010625e+00 3.717382e-01 0.000000e+00
1.106759e+00 4.106624e-01 0.000000e+00
1.010625e+00 3.717382e-01 0.000000e+00
1.106759e+00 4.106624e-01 0.000000e+00
1.029607e+00 3.208165e-01 0.000000e+00
1.127698e+00 3.543301e-01 0.000000e+00
1.029607e+00 3.208165e-01 0.000000e+00
1.127698e+00 3.543301e-01 0.000000e+00
1.045754e+00 2.688874e-01 0.000000e+00
1.145501e+00 2.969219e-01 0.000000e+00
1.045754e+00 2.688874e-01 0.000000e+00
1.145501e+00 2.969219e-01 0.000000e+00
1.059024e+00 2.161185e-01 0.000000e+00
1.160125e+00 2.386161e-01 0.000000e+00
1.059024e+00 2.161185e-01 0.000000e+00
1.160125e+00 2.386161e-01 0.000000e+00
1.069382e+00 1.626773e-01 0.000000e+00
1.171537e+00 1.795916e-01 0.000000e+00
1.069382e+00 1.626773e-01 0.000000e+00
1.171537e+00 1.795916e-01 0.000000e+00
1.076800e+00 1.087319e-01 0.000000e+00
1.179708e+00 1.200276e-01 0.000000e+00
1.076800e+00 1.087319e-01 0.000000e+00
1.179708e+00 1.200276e-01 0.000000e+00
1.081258e+00 5.445004e-02 0.000000e+00
1.184618e+00 6.010380e-02 0.000000e+00
1.081258e+00 5.445004e-02 0.000000e+00
1.184618e+00 6.010380e-02 0.000000e+00
1.082746e+00 5.301760e-12 0.000000e+00
1.186256e+00 5.808610e-12 0.000000e+00
</DataArray>
</Points>
<Cells>
<DataArray type="Int32" Name="connectivity" format="ascii">
0 1 3 2
4 5 7 6
8 9 11 10
12 13 15 14
16 17 19 18
20 21 23 22
24 25 27 26
28 29 31 30
32 33 35 34
36 37 39 38
40 41 43 42
44 45 47 46
48 49 51 50
52 53 55 54
56 57 59 58
60 61 63 62
64 65 67 66
68 69 71 70
72 73 75 74
76 77 79 78
80 81 83 82
84 85 87 86
88 89 91 90
92 93 95 94
96 97 99 98
100 101 103 102
104 105 107 106
108 109 111 110
112 113 115 114
116 117 119 118
</DataArray>
<DataArray type="Int32" Name="offsets" format="ascii">
4
8
12
16
20
24
28
32
36
40
44
48
52
56
60
64
68
72
76
80
84
88
92
96
100
104
108
112
116
120
</DataArray>
<DataArray type="UInt8" Name="types" format="ascii">
9
9
9
9
9
9
9
9
9
9
9
9
9
9
9
9
9
9
9
9
9
9
9
9
9
9
9
9
9
9
</DataArray>
</Cells>
<PointData>
<DataArray type="Float32" Name="V1" format="ascii">
1.235972e+01
1.041228e-01
1.238042e+01
1.248212e-01
1.228562e+01
1.840660e-01
1.233396e+01
2.324034e-01
1.209328e+01
3.951446e-01
1.219219e+01
4.940508e-01
1.167714e+01
8.548375e-01
1.187792e+01
1.055613e+00
1.086791e+01
1.794601e+00
1.131672e+01
2.243411e+00
9.553733e+00
3.794588e+00
1.029156e+01
4.532418e+00
8.920360e+00
5.614562e+00
9.225750e+00
5.919952e+00
8.675517e+00
6.315054e+00
8.872780e+00
6.512317e+00
8.621904e+00
6.716556e+00
8.801404e+00
6.896055e+00
8.708164e+00
6.974281e+00
8.871096e+00
7.137212e+00
8.857756e+00
7.148858e+00
9.002921e+00
7.294024e+00
9.030507e+00
7.271687e+00
9.158435e+00
7.399615e+00
9.205073e+00
7.361664e+00
9.317094e+00
7.473685e+00
9.370855e+00
7.430093e+00
9.468609e+00
7.527847e+00
9.523071e+00
7.483898e+00
9.608219e+00
7.569046e+00
9.660082e+00
7.527395e+00
9.734168e+00
7.601480e+00
9.781882e+00
7.563330e+00
9.846281e+00
7.627730e+00
9.889256e+00
7.593502e+00
9.945166e+00
7.649412e+00
9.983330e+00
7.619121e+00
1.003178e+01
7.667569e+00
1.006531e+01
7.641028e+00
1.010718e+01
7.682889e+00
1.013639e+01
7.659830e+00
1.017240e+01
7.695844e+00
1.019763e+01
7.675976e+00
1.022842e+01
7.706767e+00
1.024998e+01
7.689809e+00
1.027607e+01
7.715899e+00
1.029429e+01
7.701598e+00
1.031611e+01
7.723419e+00
1.033124e+01
7.711555e+00
1.034915e+01
7.729464e+00
1.036142e+01
7.719850e+00
1.037571e+01
7.734134e+00
1.038531e+01
7.726619e+00
1.039619e+01
7.737505e+00
1.040327e+01
7.731970e+00
1.041092e+01
7.739627e+00
1.041558e+01
7.735985e+00
1.042013e+01
7.740532e+00
1.042244e+01
7.738725e+00
1.042395e+01
7.740233e+00
</DataArray>
<DataArray type="Float32" Name="V2" format="ascii">
9.123277e-01
1.020000e+00
9.141675e-01
1.021612e+00
9.141675e-01
1.021612e+00
9.196124e-01
1.026455e+00
9.196124e-01
1.026455e+00
9.285448e-01
1.034552e+00
9.285448e-01
1.034552e+00
9.406175e-01
1.045943e+00
9.406175e-01
1.045943e+00
9.550085e-01
1.060629e+00
9.550085e-01
1.060629e+00
9.707106e-01
1.077348e+00
9.707106e-01
1.077348e+00
9.848243e-01
1.091094e+00
9.848243e-01
1.091094e+00
9.973886e-01
1.103259e+00
9.973886e-01
1.103259e+00
1.008353e+00
1.113966e+00
1.008353e+00
1.113966e+00
1.017967e+00
1.123370e+00
1.017967e+00
1.123370e+00
1.026418e+00
1.131626e+00
1.026418e+00
1.131626e+00
1.033870e+00
1.138890e+00
1.033870e+00
1.138890e+00
1.040461e+00
1.145301e+00
1.040461e+00
1.145301e+00
1.046307e+00
1.150977e+00
1.046307e+00
1.150977e+00
1.051503e+00
1.156014e+00
1.051503e+00
1.156014e+00
1.056128e+00
1.160492e+00
1.056128e+00
1.160492e+00
1.060246e+00
1.164478e+00
1.060246e+00
1.164478e+00
1.063910e+00
1.168023e+00
1.063910e+00
1.168023e+00
1.067165e+00
1.171172e+00
1.067165e+00
1.171172e+00
1.070047e+00
1.173960e+00
1.070047e+00
1.173960e+00
1.072584e+00
1.176415e+00
1.072584e+00
1.176415e+00
1.074801e+00
1.178561e+00
1.074801e+00
1.178561e+00
1.076719e+00
1.180417e+00
1.076719e+00
1.180417e+00
1.078352e+00
1.181998e+00
1.078352e+00
1.181998e+00
1.079714e+00
1.183318e+00
1.079714e+00
1.183318e+00
1.080815e+00
1.184385e+00
1.080815e+00
1.184385e+00
1.081664e+00
1.185208e+00
1.081664e+00
1.185208e+00
1.082266e+00
1.185791e+00
1.082266e+00
1.185791e+00
1.082626e+00
1.186140e+00
1.082626e+00
1.186140e+00
1.082746e+00
1.186256e+00
</DataArray>
<DataArray type="Float32" Name="V3" format="ascii">
0.000000e+00
0.000000e+00
9.187634e-03
4.054049e-03
9.187634e-03
4.054049e-03
1.788704e-02
7.962270e-03
1.788704e-02
7.962270e-03
2.556160e-02
1.160432e-02
2.556160e-02
1.160432e-02
3.159793e-02
1.484562e-02
3.159793e-02
1.484562e-02
3.540448e-02
1.734253e-02
3.540448e-02
1.734253e-02
3.733921e-02
1.820651e-02
3.733921e-02
1.820651e-02
3.806705e-02
1.911698e-02
3.806705e-02
1.911698e-02
3.776531e-02
2.031270e-02
3.776531e-02
2.031270e-02
3.705707e-02
2.150296e-02
3.705707e-02
2.150296e-02
3.611677e-02
2.249681e-02
3.611677e-02
2.249681e-02
3.502621e-02
2.320799e-02
3.502621e-02
2.320799e-02
3.382154e-02
2.361221e-02
3.382154e-02
2.361221e-02
3.251899e-02
2.371548e-02
3.251899e-02
2.371548e-02
3.112593e-02
2.353768e-02
3.112593e-02
2.353768e-02
2.964625e-02
2.310398e-02
2.964625e-02
2.310398e-02
2.808294e-02
2.244057e-02
2.808294e-02
2.244057e-02
2.643913e-02
2.157262e-02
2.643913e-02
2.157262e-02
2.471846e-02
2.052349e-02
2.471846e-02
2.052349e-02
2.292519e-02
1.931449e-02
2.292519e-02
1.931449e-02
2.106409e-02
1.796493e-02
2.106409e-02
1.796493e-02
1.914043e-02
1.649234e-02
1.914043e-02
1.649234e-02
1.715979e-02
1.491270e-02
1.715979e-02
1.491270e-02
1.512806e-02
1.324067e-02
1.512806e-02
1.324067e-02
1.305130e-02
1.148985e-02
1.305130e-02
1.148985e-02
1.093574e-02
9.672932e-03
1.093574e-02
9.672932e-03
8.787715e-03
7.801919e-03
8.787715e-03
7.801919e-03
6.613642e-03
5.888244e-03
6.613642e-03
5.888244e-03
4.419990e-03
3.942924e-03
4.419990e-03
3.942924e-03
2.213266e-03
1.976671e-03
2.213266e-03
1.976671e-03
0.000000e+00
0.000000e+00
</DataArray>
<DataArray type="Float32" Name="V4" format="ascii">
8.500000e-01
1.000000e+00
8.500000e-01
1.000000e+00
8.500000e-01
1.000000e+00
8.500000e-01
1.000000e+00
8.500000e-01
1.000000e+00
8.500000e-01
1.000000e+00
8.500000e-01
1.000000e+00
8.500000e-01
1.000000e+00
8.500000e-01
1.000000e+00
8.500000e-01
1.000000e+00
8.500000e-01
1.000000e+00
8.500000e-01
1.000000e+00
8.500000e-01
1.000000e+00
8.500000e-01
1.000000e+00
8.500000e-01
1.000000e+00
8.500000e-01
1.000000e+00
8.500000e-01
1.000000e+00
8.500000e-01
1.000000e+00
8.500000e-01
1.000000e+00
8.500000e-01
1.000000e+00
8.500000e-01
1.000000e+00
8.500000e-01
1.000000e+00
8.500000e-01
1.000000e+00
8.500000e-01
1.000000e+00
8.500000e-01
1.000000e+00
8.500000e-01
1.000000e+00
8.500000e-01
1.000000e+00
8.500000e-01
1.000000e+00
8.500000e-01
1.000000e+00
8.500000e-01
1.000000e+00
8.500000e-01
1.000000e+00
8.500000e-01
1.000000e+00
8.500000e-01
1.000000e+00
8.500000e-01
1.000000e+00
8.500000e-01
1.000000e+00
8.500000e-01
1.000000e+00
8.500000e-01
1.000000e+00
8.500000e-01
1.000000e+00
8.500000e-01
1.000000e+00
8.500000e-01
1.000000e+00
8.500000e-01
1.000000e+00
8.500000e-01
1.000000e+00
8.500000e-01
1.000000e+00
8.500000e-01
1.000000e+00
8.500000e-01
1.000000e+00
8.500000e-01
1.000000e+00
8.500000e-01
1.000000e+00
8.500000e-01
1.000000e+00
8.500000e-01
1.000000e+00
8.500000e-01
1.000000e+00
8.500000e-01
1.000000e+00
8.500000e-01
1.000000e+00
8.500000e-01
1.000000e+00
8.500000e-01
1.000000e+00
8.500000e-01
1.000000e+00
8.500000e-01
1.000000e+00
8.500000e-01
1.000000e+00
8.500000e-01
1.000000e+00
8.500000e-01
1.000000e+00
8.500000e-01
1.000000e+00
</DataArray>
<DataArray type="Float32" Name="V5" format="ascii">
0.000000e+00
0.000000e+00
5.235988e-02
5.235988e-02
5.235988e-02
5.235988e-02
1.047198e-01
1.047198e-01
1.047198e-01
1.047198e-01
1.570796e-01
1.570796e-01
1.570796e-01
1.570796e-01
2.094395e-01
2.094395e-01
2.094395e-01
2.094395e-01
2.617994e-01
2.617994e-01
2.617994e-01
2.617994e-01
3.141593e-01
3.141593e-01
3.141593e-01
3.141593e-01
3.665191e-01
3.665191e-01
3.665191e-01
3.665191e-01
4.188790e-01
4.188790e-01
4.188790e-01
4.188790e-01
4.712389e-01
4.712389e-01
4.712389e-01
4.712389e-01
5.235988e-01
5.235988e-01
5.235988e-01
5.235988e-01
5.759587e-01
5.759587e-01
5.759587e-01
5.759587e-01
6.283185e-01
6.283185e-01
6.283185e-01
6.283185e-01
6.806784e-01
6.806784e-01
6.806784e-01
6.806784e-01
7.330383e-01
7.330383e-01
7.330383e-01
7.330383e-01
7.853982e-01
7.853982e-01
7.853982e-01
7.853982e-01
8.377580e-01
8.377580e-01
8.377580e-01
8.377580e-01
8.901179e-01
8.901179e-01
8.901179e-01
8.901179e-01
9.424778e-01
9.424778e-01
9.424778e-01
9.424778e-01
9.948377e-01
9.948377e-01
9.948377e-01
9.948377e-01
1.047198e+00
1.047198e+00
1.047198e+00
1.047198e+00
1.099557e+00
1.099557e+00
1.099557e+00
1.099557e+00
1.151917e+00
1.151917e+00
1.151917e+00
1.151917e+00
1.204277e+00
1.204277e+00
1.204277e+00
1.204277e+00
1.256637e+00
1.256637e+00
1.256637e+00
1.256637e+00
1.308997e+00
1.308997e+00
1.308997e+00
1.308997e+00
1.361357e+00
1.361357e+00
1.361357e+00
1.361357e+00
1.413717e+00
1.413717e+00
1.413717e+00
1.413717e+00
1.466077e+00
1.466077e+00
1.466077e+00
1.466077e+00
1.518436e+00
1.518436e+00
1.518436e+00
1.518436e+00
1.570796e+00
1.570796e+00
</DataArray>
</PointData>
</Piece></UnstructuredGrid>
</VTKFile>
