<?xml version="1.0"?>
<VTKFile type="UnstructuredGrid" version="0.1" byte_order="LittleEndian" compressor="vtkZLibDataCompressor">
<UnstructuredGrid>
<Piece NumberOfPoints="120" NumberOfCells="30">
<Points>
<DataArray type="Float32" NumberOfComponents="3" format="ascii">
0.000000e+00 9.022276e-01 0.000000e+00
0.000000e+00 1.010000e+00 0.000000e+00
5.705339e-02 9.023281e-01 0.000000e+00
5.742397e-02 1.010000e+00 0.000000e+00
5.705339e-02 9.023281e-01 0.000000e+00
5.742397e-02 1.010000e+00 0.000000e+00
1.140080e-01 9.025910e-01 0.000000e+00
1.150041e-01 1.010000e+00 0.000000e+00
1.140080e-01 9.025910e-01 0.000000e+00
1.150041e-01 1.010000e+00 0.000000e+00
1.707123e-01 9.030067e-01 0.000000e+00
1.729305e-01 1.010000e+00 0.000000e+00
1.707123e-01 9.030067e-01 0.000000e+00
1.729305e-01 1.010000e+00 0.000000e+00
2.269026e-01 9.034696e-01 0.000000e+00
2.314139e-01 1.010000e+00 0.000000e+00
2.269026e-01 9.034696e-01 0.000000e+00
2.314139e-01 1.010000e+00 0.000000e+00
2.821371e-01 9.035470e-01 0.000000e+00
2.905755e-01 1.010000e+00 0.000000e+00
2.821371e-01 9.035470e-01 0.000000e+00
2.905755e-01 1.010000e+00 0.000000e+00
3.363372e-01 9.027435e-01 0.000000e+00
3.497848e-01 1.010000e+00 0.000000e+00
3.363372e-01 9.027435e-01 0.000000e+00
3.497848e-01 1.010000e+00 0.000000e+00
3.897210e-01 8.981193e-01 0.000000e+00
4.084334e-01 1.004510e+00 0.000000e+00
3.897210e-01 8.981193e-01 0.000000e+00
4.084334e-01 1.004510e+00 0.000000e+00
4.416437e-01 8.893462e-01 0.000000e+00
4.669862e-01 9.936280e-01 0.000000e+00
4.416437e-01 8.893462e-01 0.000000e+00
4.669862e-01 9.936280e-01 0.000000e+00
4.924524e-01 8.762491e-01 0.000000e+00
5.248615e-01 9.779194e-01 0.000000e+00
4.924524e-01 8.762491e-01 0.000000e+00
5.248615e-01 9.779194e-01 0.000000e+00
5.420996e-01 8.590789e-01 0.000000e+00
5.814948e-01 9.576897e-01 0.000000e+00
5.420996e-01 8.590789e-01 0.000000e+00
5.814948e-01 9.576897e-01 0.000000e+00
5.904384e-01 8.380973e-01 0.000000e+00
6.365001e-01 9.332727e-01 0.000000e+00
5.904384e-01 8.380973e-01 0.000000e+00
6.365001e-01 9.332727e-01 0.000000e+00
6.372985e-01 8.135615e-01 0.000000e+00
6.896138e-01 9.049955e-01 0.000000e+00
6.372985e-01 8.135615e-01 0.000000e+00
6.896138e-01 9.049955e-01 0.000000e+00
6.825104e-01 7.857182e-01 0.000000e+00
7.406431e-01 8.731595e-01 0.000000e+00
6.825104e-01 7.857182e-01 0.000000e+00
7.406431e-01 8.731595e-01 0.000000e+00
7.259143e-01 7.548010e-01 0.000000e+00
7.894359e-01 8.380390e-01 0.000000e+00
7.259143e-01 7.548010e-01 0.000000e+00
7.894359e-01 8.380390e-01 0.000000e+00
7.673633e-01 7.210308e-01 0.000000e+00
8.358649e-01 7.998836e-01 0.000000e+00
7.673633e-01 7.210308e-01 0.000000e+00
8.358649e-01 7.998836e-01 0.000000e+00
8.067233e-01 6.846169e-01 0.000000e+00
8.798175e-01 7.589229e-01 0.000000e+00
8.067233e-01 6.846169e-01 0.000000e+00
8.798175e-01 7.589229e-01 0.000000e+00
8.438721e-01 6.457586e-01 0.000000e+00
9.211919e-01 7.153719e-01 0.000000e+00
8.438721e-01 6.457586e-01 0.000000e+00
9.211919e-01 7.153719e-01 0.000000e+00
8.786984e-01 6.046471e-01 0.000000e+00
9.598939e-01 6.694338e-01 0.000000e+00
8.786984e-01 6.046471e-01 0.000000e+00
9.598939e-01 6.694338e-01 0.000000e+00
9.111012e-01 5.614673e-01 0.000000e+00
9.958359e-01 6.213040e-01 0.000000e+00
9.111012e-01 5.614673e-01 0.000000e+00
9.958359e-01 6.213040e-01 0.000000e+00
9.409886e-01 5.163994e-01 0.000000e+00
1.028937e+00 5.711724e-01 0.000000e+00
9.409886e-01 5.163994e-01 0.000000e+00
1.028937e+00 5.711724e-01 0.000000e+00
9.682776e-01 4.696202e-01 0.000000e+00
1.059121e+00 5.192248e-01 0.000000e+00
9.682776e-01 4.696202e-01 0.000000e+00
1.059121e+00 5.192248e-01 0.000000e+00
9.928934e-01 4.213039e-01 0.000000e+00
1.086319e+00 4.656447e-01 0.000000e+00
9.928934e-01 4.213039e-01 0.000000e+00
1.086319e+00 4.656447e-01 0.000000e+00
1.014769e+00 3.716230e-01 0.000000e+00
1.110469e+00 4.106141e-01 0.000000e+00
1.014769e+00 3.716230e-01 0.000000e+00
1.110469e+00 4.106141e-01 0.000000e+00
1.033847e+00 3.207490e-01 0.000000e+00
1.131515e+00 3.543143e-01 0.000000e+00
1.033847e+00 3.207490e-01 0.000000e+00
1.131515e+00 3.543143e-01 0.000000e+00
1.050076e+00 2.688526e-01 0.000000e+00
1.149407e+00 2.969263e-01 0.000000e+00
1.050076e+00 2.688526e-01 0.000000e+00
1.149407e+00 2.969263e-01 0.000000e+00
1.063412e+00 2.161044e-01 0.000000e+00
1.164104e+00 2.386308e-01 0.000000e+00
1.063412e+00 2.161044e-01 0.000000e+00
1.164104e+00 2.386308e-01 0.000000e+00
1.073822e+00 1.626747e-01 0.000000e+00
1.175571e+00 1.796091e-01 0.000000e+00
1.073822e+00 1.626747e-01 0.000000e+00
1.175571e+00 1.796091e-01 0.000000e+00
1.081276e+00 1.087339e-01 0.000000e+00
1.183781e+00 1.200423e-01 0.000000e+00
1.081276e+00 1.087339e-01 0.000000e+00
1.183781e+00 1.200423e-01 0.000000e+00
1.085757e+00 5.445214e-02 0.000000e+00
1.188715e+00 6.011205e-02 0.000000e+00
1.085757e+00 5.445214e-02 0.000000e+00
1.188715e+00 6.011205e-02 0.000000e+00
1.087252e+00 5.323830e-12 0.000000e+00
1.190361e+00 5.828710e-12 0.000000e+00
</DataArray>
</Points>
<Cells>
<DataArray type="Int32" Name="connectivity" format="ascii">
0 1 3 2
4 5 7 6
8 9 11 10
12 13 15 14
16 17 19 18
20 21 23 22
24 25 27 26
28 29 31 30
32 33 35 34
36 37 39 38
40 41 43 42
44 45 47 46
48 49 51 50
52 53 55 54
56 57 59 58
60 61 63 62
64 65 67 66
68 69 71 70
72 73 75 74
76 77 79 78
80 81 83 82
84 85 87 86
88 89 91 90
92 93 95 94
96 97 99 98
100 101 103 102
104 105 107 106
108 109 111 110
112 113 115 114
116 117 119 118
</DataArray>
<DataArray type="Int32" Name="offsets" format="ascii">
4
8
12
16
20
24
28
32
36
40
44
48
52
56
60
64
68
72
76
80
84
88
92
96
100
104
108
112
116
120
</DataArray>
<DataArray type="UInt8" Name="types" format="ascii">
9
9
9
9
9
9
9
9
9
9
9
9
9
9
9
9
9
9
9
9
9
9
9
9
9
9
9
9
9
9
</DataArray>
</Cells>
<PointData>
<DataArray type="Float32" Name="V1" format="ascii">
1.236856e+01
3.298954e-02
1.238762e+01
5.205331e-02
1.231675e+01
9.577659e-02
1.236179e+01
1.408227e-01
1.217687e+01
2.646032e-01
1.226543e+01
3.531602e-01
1.185565e+01
6.373152e-01
1.202409e+01
8.057602e-01
1.119941e+01
1.394786e+00
1.156425e+01
1.759624e+00
9.965010e+00
3.032314e+00
1.071502e+01
3.782325e+00
9.043991e+00
5.291879e+00
9.473236e+00
5.721124e+00
8.746576e+00
6.203968e+00
8.961778e+00
6.419171e+00
8.643101e+00
6.676870e+00
8.838993e+00
6.872763e+00
8.711997e+00
6.979200e+00
8.891788e+00
7.158991e+00
8.864297e+00
7.182631e+00
9.025864e+00
7.344198e+00
9.049641e+00
7.325035e+00
9.192831e+00
7.468224e+00
9.241210e+00
7.428763e+00
9.367070e+00
7.554623e+00
9.425339e+00
7.507238e+00
9.535447e+00
7.617345e+00
9.595616e+00
7.568660e+00
9.691686e+00
7.664730e+00
9.749578e+00
7.618130e+00
9.833263e+00
7.701814e+00
9.886851e+00
7.658886e+00
9.959651e+00
7.731686e+00
1.000811e+01
7.693039e+00
1.007134e+01
7.756276e+00
1.011448e+01
7.721998e+00
1.016930e+01
7.776816e+00
1.020727e+01
7.746741e+00
1.025465e+01
7.794119e+00
1.028776e+01
7.767967e+00
1.032853e+01
7.808735e+00
1.035714e+01
7.786189e+00
1.039200e+01
7.821050e+00
1.041648e+01
7.801801e+00
1.044602e+01
7.831341e+00
1.046670e+01
7.815106e+00
1.049141e+01
7.839815e+00
1.050860e+01
7.826344e+00
1.052888e+01
7.846624e+00
1.054282e+01
7.835708e+00
1.055899e+01
7.851884e+00
1.056990e+01
7.843350e+00
1.058223e+01
7.855678e+00
1.059027e+01
7.849393e+00
1.059894e+01
7.858064e+00
1.060423e+01
7.853928e+00
1.060938e+01
7.859078e+00
1.061201e+01
7.857026e+00
1.061371e+01
7.858734e+00
</DataArray>
<DataArray type="Float32" Name="V2" format="ascii">
9.022276e-01
1.010000e+00
9.040775e-01
1.011621e+00
9.040775e-01
1.011621e+00
9.095636e-01
1.016488e+00
9.095636e-01
1.016488e+00
9.185945e-01
1.024618e+00
9.185945e-01
1.024618e+00
9.309023e-01
1.036043e+00
9.309023e-01
1.036043e+00
9.457819e-01
1.050792e+00
9.457819e-01
1.050792e+00
9.624940e-01
1.068657e+00
9.624940e-01
1.068657e+00
9.781302e-01
1.084160e+00
9.781302e-01
1.084160e+00
9.920909e-01
1.097665e+00
9.920909e-01
1.097665e+00
1.004312e+00
1.109615e+00
1.004312e+00
1.109615e+00
1.015034e+00
1.120131e+00
1.015034e+00
1.120131e+00
1.024463e+00
1.129371e+00
1.024463e+00
1.129371e+00
1.032780e+00
1.137502e+00
1.032780e+00
1.137502e+00
1.040135e+00
1.144674e+00
1.040135e+00
1.144674e+00
1.046658e+00
1.151020e+00
1.046658e+00
1.151020e+00
1.052454e+00
1.156649e+00
1.052454e+00
1.156649e+00
1.057610e+00
1.161650e+00
1.057610e+00
1.161650e+00
1.062201e+00
1.166099e+00
1.062201e+00
1.166099e+00
1.066285e+00
1.170054e+00
1.066285e+00
1.170054e+00
1.069911e+00
1.173565e+00
1.069911e+00
1.173565e+00
1.073120e+00
1.176671e+00
1.073120e+00
1.176671e+00
1.075945e+00
1.179407e+00
1.075945e+00
1.179407e+00
1.078413e+00
1.181797e+00
1.078413e+00
1.181797e+00
1.080547e+00
1.183863e+00
1.080547e+00
1.183863e+00
1.082364e+00
1.185624e+00
1.082364e+00
1.185624e+00
1.083879e+00
1.187092e+00
1.083879e+00
1.187092e+00
1.085105e+00
1.188280e+00
1.085105e+00
1.188280e+00
1.086049e+00
1.189195e+00
1.086049e+00
1.189195e+00
1.086719e+00
1.189844e+00
1.086719e+00
1.189844e+00
1.087119e+00
1.190232e+00
1.087119e+00
1.190232e+00
1.087252e+00
1.190361e+00
</DataArray>
<DataArray type="Float32" Name="V3" format="ascii">
0.000000e+00
0.000000e+00
9.750996e-03
4.485958e-03
9.750996e-03
4.485958e-03
1.903698e-02
8.800317e-03
1.903698e-02
8.800317e-03
2.734915e-02
1.280267e-02
2.734915e-02
1.280267e-02
3.410231e-02
1.636611e-02
3.410231e-02
1.636611e-02
3.866835e-02
1.926714e-02
3.866835e-02
1.926714e-02
4.091259e-02
2.055793e-02
4.091259e-02
2.055793e-02
4.197874e-02
2.132144e-02
4.197874e-02
2.132144e-02
4.173188e-02
2.246817e-02
4.173188e-02
2.246817e-02
4.096949e-02
2.368895e-02
4.096949e-02
2.368895e-02
3.993257e-02
2.474445e-02
3.993257e-02
2.474445e-02
3.872284e-02
2.551714e-02
3.872284e-02
2.551714e-02
3.738588e-02
2.596631e-02
3.738588e-02
2.596631e-02
3.594171e-02
2.609066e-02
3.594171e-02
2.609066e-02
3.439901e-02
2.590765e-02
3.439901e-02
2.590765e-02
3.276202e-02
2.544262e-02
3.276202e-02
2.544262e-02
3.103373e-02
2.472317e-02
3.103373e-02
2.472317e-02
2.921722e-02
2.377651e-02
2.921722e-02
2.377651e-02
2.731624e-02
2.262820e-02
2.731624e-02
2.262820e-02
2.533522e-02
2.130173e-02
2.533522e-02
2.130173e-02
2.327929e-02
1.981853e-02
2.327929e-02
1.981853e-02
2.115412e-02
1.819808e-02
2.115412e-02
1.819808e-02
1.896583e-02
1.645818e-02
1.896583e-02
1.645818e-02
1.672087e-02
1.461520e-02
1.672087e-02
1.461520e-02
1.442593e-02
1.268429e-02
1.442593e-02
1.268429e-02
1.208790e-02
1.067964e-02
1.208790e-02
1.067964e-02
9.713810e-03
8.614633e-03
9.713810e-03
8.614633e-03
7.310766e-03
6.502032e-03
7.310766e-03
6.502032e-03
4.885957e-03
4.354129e-03
4.885957e-03
4.354129e-03
2.446615e-03
2.182875e-03
2.446615e-03
2.182875e-03
0.000000e+00
0.000000e+00
</DataArray>
<DataArray type="Float32" Name="V4" format="ascii">
8.500000e-01
1.000000e+00
8.500000e-01
1.000000e+00
8.500000e-01
1.000000e+00
8.500000e-01
1.000000e+00
8.500000e-01
1.000000e+00
8.500000e-01
1.000000e+00
8.500000e-01
1.000000e+00
8.500000e-01
1.000000e+00
8.500000e-01
1.000000e+00
8.500000e-01
1.000000e+00
8.500000e-01
1.000000e+00
8.500000e-01
1.000000e+00
8.500000e-01
1.000000e+00
8.500000e-01
1.000000e+00
8.500000e-01
1.000000e+00
8.500000e-01
1.000000e+00
8.500000e-01
1.000000e+00
8.500000e-01
1.000000e+00
8.500000e-01
1.000000e+00
8.500000e-01
1.000000e+00
8.500000e-01
1.000000e+00
8.500000e-01
1.000000e+00
8.500000e-01
1.000000e+00
8.500000e-01
1.000000e+00
8.500000e-01
1.000000e+00
8.500000e-01
1.000000e+00
8.500000e-01
1.000000e+00
8.500000e-01
1.000000e+00
8.500000e-01
1.000000e+00
8.500000e-01
1.000000e+00
8.500000e-01
1.000000e+00
8.500000e-01
1.000000e+00
8.500000e-01
1.000000e+00
8.500000e-01
1.000000e+00
8.500000e-01
1.000000e+00
8.500000e-01
1.000000e+00
8.500000e-01
1.000000e+00
8.500000e-01
1.000000e+00
8.500000e-01
1.000000e+00
8.500000e-01
1.000000e+00
8.500000e-01
1.000000e+00
8.500000e-01
1.000000e+00
8.500000e-01
1.000000e+00
8.500000e-01
1.000000e+00
8.500000e-01
1.000000e+00
8.500000e-01
1.000000e+00
8.500000e-01
1.000000e+00
8.500000e-01
1.000000e+00
8.500000e-01
1.000000e+00
8.500000e-01
1.000000e+00
8.500000e-01
1.000000e+00
8.500000e-01
1.000000e+00
8.500000e-01
1.000000e+00
8.500000e-01
1.000000e+00
8.500000e-01
1.000000e+00
8.500000e-01
1.000000e+00
8.500000e-01
1.000000e+00
8.500000e-01
1.000000e+00
8.500000e-01
1.000000e+00
8.500000e-01
1.000000e+00
</DataArray>
<DataArray type="Float32" Name="V5" format="ascii">
0.000000e+00
0.000000e+00
5.235988e-02
5.235988e-02
5.235988e-02
5.235988e-02
1.047198e-01
1.047198e-01
1.047198e-01
1.047198e-01
1.570796e-01
1.570796e-01
1.570796e-01
1.570796e-01
2.094395e-01
2.094395e-01
2.094395e-01
2.094395e-01
2.617994e-01
2.617994e-01
2.617994e-01
2.617994e-01
3.141593e-01
3.141593e-01
3.141593e-01
3.141593e-01
3.665191e-01
3.665191e-01
3.665191e-01
3.665191e-01
4.188790e-01
4.188790e-01
4.188790e-01
4.188790e-01
4.712389e-01
4.712389e-01
4.712389e-01
4.712389e-01
5.235988e-01
5.235988e-01
5.235988e-01
5.235988e-01
5.759587e-01
5.759587e-01
5.759587e-01
5.759587e-01
6.283185e-01
6.283185e-01
6.283185e-01
6.283185e-01
6.806784e-01
6.806784e-01
6.806784e-01
6.806784e-01
7.330383e-01
7.330383e-01
7.330383e-01
7.330383e-01
7.853982e-01
7.853982e-01
7.853982e-01
7.853982e-01
8.377580e-01
8.377580e-01
8.377580e-01
8.377580e-01
8.901179e-01
8.901179e-01
8.901179e-01
8.901179e-01
9.424778e-01
9.424778e-01
9.424778e-01
9.424778e-01
9.948377e-01
9.948377e-01
9.948377e-01
9.948377e-01
1.047198e+00
1.047198e+00
1.047198e+00
1.047198e+00
1.099557e+00
1.099557e+00
1.099557e+00
1.099557e+00
1.151917e+00
1.151917e+00
1.151917e+00
1.151917e+00
1.204277e+00
1.204277e+00
1.204277e+00
1.204277e+00
1.256637e+00
1.256637e+00
1.256637e+00
1.256637e+00
1.308997e+00
1.308997e+00
1.308997e+00
1.308997e+00
1.361357e+00
1.361357e+00
1.361357e+00
1.361357e+00
1.413717e+00
1.413717e+00
1.413717e+00
1.413717e+00
1.466077e+00
1.466077e+00
1.466077e+00
1.466077e+00
1.518436e+00
1.518436e+00
1.518436e+00
1.518436e+00
1.570796e+00
1.570796e+00
</DataArray>
</PointData>
</Piece></UnstructuredGrid>
</VTKFile>
