<?xml version="1.0"?>
<VTKFile type="UnstructuredGrid" version="0.1" byte_order="LittleEndian" compressor="vtkZLibDataCompressor">
<UnstructuredGrid>
<Piece NumberOfPoints="120" NumberOfCells="30">
<Points>
<DataArray type="Float32" NumberOfComponents="3" format="ascii">
0.000000e+00 8.621625e-01 0.000000e+00
0.000000e+00 9.700000e-01 0.000000e+00
5.717563e-02 8.622432e-01 0.000000e+00
5.725029e-02 9.700000e-01 0.000000e+00
5.717563e-02 8.622432e-01 0.000000e+00
5.725029e-02 9.700000e-01 0.000000e+00
1.143111e-01 8.624611e-01 0.000000e+00
1.145797e-01 9.700000e-01 0.000000e+00
1.143111e-01 8.624611e-01 0.000000e+00
1.145797e-01 9.700000e-01 0.000000e+00
1.713391e-01 8.628345e-01 0.000000e+00
1.720987e-01 9.700000e-01 0.000000e+00
1.713391e-01 8.628345e-01 0.000000e+00
1.720987e-01 9.700000e-01 0.000000e+00
2.281325e-01 8.633575e-01 0.000000e+00
2.299688e-01 9.700000e-01 0.000000e+00
2.281325e-01 8.633575e-01 0.000000e+00
2.299688e-01 9.700000e-01 0.000000e+00
2.844481e-01 8.639542e-01 0.000000e+00
2.884016e-01 9.700000e-01 0.000000e+00
2.844481e-01 8.639542e-01 0.000000e+00
2.884016e-01 9.700000e-01 0.000000e+00
3.398574e-01 8.642829e-01 0.000000e+00
3.475626e-01 9.700000e-01 0.000000e+00
3.398574e-01 8.642829e-01 0.000000e+00
3.475626e-01 9.700000e-01 0.000000e+00
3.940671e-01 8.637704e-01 0.000000e+00
4.070295e-01 9.700000e-01 0.000000e+00
3.940671e-01 8.637704e-01 0.000000e+00
4.070295e-01 9.700000e-01 0.000000e+00
4.475050e-01 8.600810e-01 0.000000e+00
4.658586e-01 9.658359e-01 0.000000e+00
4.475050e-01 8.600810e-01 0.000000e+00
4.658586e-01 9.658359e-01 0.000000e+00
4.993262e-01 8.517007e-01 0.000000e+00
5.244813e-01 9.551718e-01 0.000000e+00
4.993262e-01 8.517007e-01 0.000000e+00
5.244813e-01 9.551718e-01 0.000000e+00
5.498811e-01 8.387855e-01 0.000000e+00
5.824619e-01 9.393820e-01 0.000000e+00
5.498811e-01 8.387855e-01 0.000000e+00
5.824619e-01 9.393820e-01 0.000000e+00
5.991485e-01 8.214656e-01 0.000000e+00
6.390848e-01 9.186809e-01 0.000000e+00
5.991485e-01 8.214656e-01 0.000000e+00
6.390848e-01 9.186809e-01 0.000000e+00
6.469761e-01 8.000603e-01 0.000000e+00
6.939007e-01 8.934725e-01 0.000000e+00
6.469761e-01 8.000603e-01 0.000000e+00
6.939007e-01 8.934725e-01 0.000000e+00
6.931812e-01 7.748647e-01 0.000000e+00
7.466051e-01 8.641456e-01 0.000000e+00
6.931812e-01 7.748647e-01 0.000000e+00
7.466051e-01 8.641456e-01 0.000000e+00
7.375842e-01 7.461690e-01 0.000000e+00
7.969892e-01 8.310649e-01 0.000000e+00
7.375842e-01 7.461690e-01 0.000000e+00
7.969892e-01 8.310649e-01 0.000000e+00
7.800180e-01 7.142489e-01 0.000000e+00
8.448978e-01 7.945603e-01 0.000000e+00
7.800180e-01 7.142489e-01 0.000000e+00
8.448978e-01 7.945603e-01 0.000000e+00
8.203318e-01 6.793646e-01 0.000000e+00
8.902081e-01 7.549298e-01 0.000000e+00
8.203318e-01 6.793646e-01 0.000000e+00
8.902081e-01 7.549298e-01 0.000000e+00
8.583907e-01 6.417607e-01 0.000000e+00
9.328169e-01 7.124438e-01 0.000000e+00
8.583907e-01 6.417607e-01 0.000000e+00
9.328169e-01 7.124438e-01 0.000000e+00
8.940740e-01 6.016687e-01 0.000000e+00
9.726330e-01 6.673518e-01 0.000000e+00
8.940740e-01 6.016687e-01 0.000000e+00
9.726330e-01 6.673518e-01 0.000000e+00
9.272741e-01 5.593082e-01 0.000000e+00
1.009574e+00 6.198864e-01 0.000000e+00
9.272741e-01 5.593082e-01 0.000000e+00
1.009574e+00 6.198864e-01 0.000000e+00
9.578947e-01 5.148893e-01 0.000000e+00
1.043566e+00 5.702682e-01 0.000000e+00
9.578947e-01 5.148893e-01 0.000000e+00
1.043566e+00 5.702682e-01 0.000000e+00
9.858498e-01 4.686147e-01 0.000000e+00
1.074537e+00 5.187083e-01 0.000000e+00
9.858498e-01 4.686147e-01 0.000000e+00
1.074537e+00 5.187083e-01 0.000000e+00
1.011063e+00 4.206810e-01 0.000000e+00
1.102426e+00 4.654116e-01 0.000000e+00
1.011063e+00 4.206810e-01 0.000000e+00
1.102426e+00 4.654116e-01 0.000000e+00
1.033467e+00 3.712803e-01 0.000000e+00
1.127174e+00 4.105778e-01 0.000000e+00
1.033467e+00 3.712803e-01 0.000000e+00
1.127174e+00 4.105778e-01 0.000000e+00
1.053002e+00 3.206013e-01 0.000000e+00
1.148730e+00 3.544035e-01 0.000000e+00
1.053002e+00 3.206013e-01 0.000000e+00
1.148730e+00 3.544035e-01 0.000000e+00
1.069617e+00 2.688301e-01 0.000000e+00
1.167048e+00 2.970830e-01 0.000000e+00
1.069617e+00 2.688301e-01 0.000000e+00
1.167048e+00 2.970830e-01 0.000000e+00
1.083270e+00 2.161509e-01 0.000000e+00
1.182090e+00 2.388089e-01 0.000000e+00
1.083270e+00 2.161509e-01 0.000000e+00
1.182090e+00 2.388089e-01 0.000000e+00
1.093925e+00 1.627466e-01 0.000000e+00
1.193822e+00 1.797727e-01 0.000000e+00
1.093925e+00 1.627466e-01 0.000000e+00
1.193822e+00 1.797727e-01 0.000000e+00
1.101555e+00 1.087992e-01 0.000000e+00
1.202221e+00 1.201656e-01 0.000000e+00
1.101555e+00 1.087992e-01 0.000000e+00
1.202221e+00 1.201656e-01 0.000000e+00
1.106141e+00 5.448998e-02 0.000000e+00
1.207267e+00 6.017789e-02 0.000000e+00
1.106141e+00 5.448998e-02 0.000000e+00
1.207267e+00 6.017789e-02 0.000000e+00
1.107671e+00 5.423810e-12 0.000000e+00
1.208951e+00 5.919730e-12 0.000000e+00
</DataArray>
</Points>
<Cells>
<DataArray type="Int32" Name="connectivity" format="ascii">
0 1 3 2
4 5 7 6
8 9 11 10
12 13 15 14
16 17 19 18
20 21 23 22
24 25 27 26
28 29 31 30
32 33 35 34
36 37 39 38
40 41 43 42
44 45 47 46
48 49 51 50
52 53 55 54
56 57 59 58
60 61 63 62
64 65 67 66
68 69 71 70
72 73 75 74
76 77 79 78
80 81 83 82
84 85 87 86
88 89 91 90
92 93 95 94
96 97 99 98
100 101 103 102
104 105 107 106
108 109 111 110
112 113 115 114
116 117 119 118
</DataArray>
<DataArray type="Int32" Name="offsets" format="ascii">
4
8
12
16
20
24
28
32
36
40
44
48
52
56
60
64
68
72
76
80
84
88
92
96
100
104
108
112
116
120
</DataArray>
<DataArray type="UInt8" Name="types" format="ascii">
9
9
9
9
9
9
9
9
9
9
9
9
9
9
9
9
9
9
9
9
9
9
9
9
9
9
9
9
9
9
</DataArray>
</Cells>
<PointData>
<DataArray type="Float32" Name="V1" format="ascii">
1.239100e+01
-1.727793e-01
1.240784e+01
-1.559371e-01
1.239340e+01
-1.484694e-01
1.243528e+01
-1.065816e-01
1.238607e+01
-7.543665e-02
1.245966e+01
-1.842105e-03
1.231895e+01
9.084324e-02
1.243505e+01
2.069433e-01
1.209397e+01
4.407999e-01
1.228320e+01
6.300259e-01
1.155238e+01
1.149767e+00
1.191046e+01
1.507843e+00
1.044891e+01
2.651229e+00
1.116677e+01
3.369091e+00
9.287025e+00
5.127527e+00
9.919817e+00
5.760319e+00
8.976286e+00
6.362884e+00
9.238697e+00
6.625295e+00
8.873716e+00
6.924521e+00
9.121959e+00
7.172764e+00
8.974721e+00
7.297210e+00
9.207245e+00
7.529734e+00
9.184225e+00
7.550458e+00
9.396812e+00
7.763045e+00
9.436595e+00
7.730646e+00
9.627342e+00
7.921394e+00
9.697590e+00
7.863690e+00
9.866801e+00
8.032900e+00
9.949055e+00
7.965605e+00
1.009808e+01
8.114627e+00
1.018222e+01
8.046216e+00
1.031285e+01
8.176849e+00
1.039351e+01
8.111696e+00
1.050764e+01
8.225831e+00
1.058216e+01
8.165997e+00
1.068160e+01
8.265437e+00
1.074888e+01
8.211708e+00
1.083526e+01
8.298091e+00
1.089503e+01
8.250578e+00
1.096980e+01
8.325347e+00
1.102226e+01
8.283822e+00
1.108666e+01
8.348229e+00
1.113219e+01
8.312314e+00
1.118730e+01
8.367430e+00
1.122636e+01
8.336703e+00
1.127309e+01
8.383434e+00
1.130616e+01
8.357483e+00
1.134526e+01
8.396587e+00
1.137278e+01
8.375038e+00
1.140488e+01
8.407142e+00
1.142723e+01
8.389672e+00
1.145284e+01
8.415284e+00
1.147033e+01
8.401623e+00
1.148985e+01
8.421144e+00
1.150275e+01
8.411081e+00
1.151649e+01
8.424814e+00
1.152498e+01
8.418192e+00
1.153314e+01
8.426348e+00
1.153735e+01
8.423063e+00
1.154006e+01
8.425768e+00
</DataArray>
<DataArray type="Float32" Name="V2" format="ascii">
8.621625e-01
9.700000e-01
8.640539e-01
9.716669e-01
8.640539e-01
9.716669e-01
8.696852e-01
9.766631e-01
8.696852e-01
9.766631e-01
8.790150e-01
9.849799e-01
8.790150e-01
9.849799e-01
8.919225e-01
9.966164e-01
8.919225e-01
9.966164e-01
9.081363e-01
1.011592e+00
9.081363e-01
1.011592e+00
9.270036e-01
1.029928e+00
9.270036e-01
1.029928e+00
9.476202e-01
1.051439e+00
9.476202e-01
1.051439e+00
9.677398e-01
1.071817e+00
9.677398e-01
1.071817e+00
9.855603e-01
1.089174e+00
9.855603e-01
1.089174e+00
1.001350e+00
1.104760e+00
1.001350e+00
1.104760e+00
1.015259e+00
1.118541e+00
1.015259e+00
1.118541e+00
1.027545e+00
1.130699e+00
1.027545e+00
1.130699e+00
1.038416e+00
1.141421e+00
1.038416e+00
1.141421e+00
1.048052e+00
1.150891e+00
1.048052e+00
1.150891e+00
1.056606e+00
1.159272e+00
1.056606e+00
1.159272e+00
1.064209e+00
1.166700e+00
1.064209e+00
1.166700e+00
1.070968e+00
1.173290e+00
1.070968e+00
1.173290e+00
1.076973e+00
1.179136e+00
1.076973e+00
1.179136e+00
1.082299e+00
1.184315e+00
1.082299e+00
1.184315e+00
1.087006e+00
1.188888e+00
1.087006e+00
1.188888e+00
1.091145e+00
1.192908e+00
1.091145e+00
1.192908e+00
1.094758e+00
1.196416e+00
1.094758e+00
1.196416e+00
1.097879e+00
1.199446e+00
1.097879e+00
1.199446e+00
1.100535e+00
1.202024e+00
1.100535e+00
1.202024e+00
1.102749e+00
1.204173e+00
1.102749e+00
1.204173e+00
1.104538e+00
1.205909e+00
1.104538e+00
1.205909e+00
1.105916e+00
1.207247e+00
1.105916e+00
1.207247e+00
1.106893e+00
1.208196e+00
1.106893e+00
1.208196e+00
1.107477e+00
1.208762e+00
1.107477e+00
1.208762e+00
1.107671e+00
1.208951e+00
</DataArray>
<DataArray type="Float32" Name="V3" format="ascii">
0.000000e+00
0.000000e+00
1.197095e-02
6.405950e-03
1.197095e-02
6.405950e-03
2.353316e-02
1.255946e-02
2.353316e-02
1.255946e-02
3.425262e-02
1.823844e-02
3.425262e-02
1.823844e-02
4.364516e-02
2.326912e-02
4.364516e-02
2.326912e-02
5.114800e-02
2.752009e-02
5.114800e-02
2.752009e-02
5.614551e-02
3.080516e-02
5.614551e-02
3.080516e-02
5.834568e-02
3.237787e-02
5.834568e-02
3.237787e-02
5.898970e-02
3.274211e-02
5.898970e-02
3.274211e-02
5.823889e-02
3.367733e-02
5.823889e-02
3.367733e-02
5.681825e-02
3.473578e-02
5.681825e-02
3.473578e-02
5.508596e-02
3.563212e-02
5.508596e-02
3.563212e-02
5.315096e-02
3.620748e-02
5.315096e-02
3.620748e-02
5.106483e-02
3.639674e-02
5.106483e-02
3.639674e-02
4.884734e-02
3.618743e-02
4.884734e-02
3.618743e-02
4.650575e-02
3.559393e-02
4.650575e-02
3.559393e-02
4.404288e-02
3.464337e-02
4.404288e-02
3.464337e-02
4.146099e-02
3.336784e-02
4.146099e-02
3.336784e-02
3.876329e-02
3.180041e-02
3.876329e-02
3.180041e-02
3.595434e-02
2.997311e-02
3.595434e-02
2.997311e-02
3.304010e-02
2.791607e-02
3.304010e-02
2.791607e-02
3.002768e-02
2.565724e-02
3.002768e-02
2.565724e-02
2.692515e-02
2.322249e-02
2.692515e-02
2.322249e-02
2.374129e-02
2.063576e-02
2.374129e-02
2.063576e-02
2.048544e-02
1.791936e-02
2.048544e-02
1.791936e-02
1.716733e-02
1.509416e-02
1.716733e-02
1.509416e-02
1.379698e-02
1.217993e-02
1.379698e-02
1.217993e-02
1.038464e-02
9.195497e-03
1.038464e-02
9.195497e-03
6.940700e-03
6.159000e-03
6.940700e-03
6.159000e-03
3.475637e-03
3.088068e-03
3.475637e-03
3.088068e-03
0.000000e+00
0.000000e+00
</DataArray>
<DataArray type="Float32" Name="V4" format="ascii">
8.500000e-01
1.000000e+00
8.500000e-01
1.000000e+00
8.500000e-01
1.000000e+00
8.500000e-01
1.000000e+00
8.500000e-01
1.000000e+00
8.500000e-01
1.000000e+00
8.500000e-01
1.000000e+00
8.500000e-01
1.000000e+00
8.500000e-01
1.000000e+00
8.500000e-01
1.000000e+00
8.500000e-01
1.000000e+00
8.500000e-01
1.000000e+00
8.500000e-01
1.000000e+00
8.500000e-01
1.000000e+00
8.500000e-01
1.000000e+00
8.500000e-01
1.000000e+00
8.500000e-01
1.000000e+00
8.500000e-01
1.000000e+00
8.500000e-01
1.000000e+00
8.500000e-01
1.000000e+00
8.500000e-01
1.000000e+00
8.500000e-01
1.000000e+00
8.500000e-01
1.000000e+00
8.500000e-01
1.000000e+00
8.500000e-01
1.000000e+00
8.500000e-01
1.000000e+00
8.500000e-01
1.000000e+00
8.500000e-01
1.000000e+00
8.500000e-01
1.000000e+00
8.500000e-01
1.000000e+00
8.500000e-01
1.000000e+00
8.500000e-01
1.000000e+00
8.500000e-01
1.000000e+00
8.500000e-01
1.000000e+00
8.500000e-01
1.000000e+00
8.500000e-01
1.000000e+00
8.500000e-01
1.000000e+00
8.500000e-01
1.000000e+00
8.500000e-01
1.000000e+00
8.500000e-01
1.000000e+00
8.500000e-01
1.000000e+00
8.500000e-01
1.000000e+00
8.500000e-01
1.000000e+00
8.500000e-01
1.000000e+00
8.500000e-01
1.000000e+00
8.500000e-01
1.000000e+00
8.500000e-01
1.000000e+00
8.500000e-01
1.000000e+00
8.500000e-01
1.000000e+00
8.500000e-01
1.000000e+00
8.500000e-01
1.000000e+00
8.500000e-01
1.000000e+00
8.500000e-01
1.000000e+00
8.500000e-01
1.000000e+00
8.500000e-01
1.000000e+00
8.500000e-01
1.000000e+00
8.500000e-01
1.000000e+00
8.500000e-01
1.000000e+00
8.500000e-01
1.000000e+00
8.500000e-01
1.000000e+00
</DataArray>
<DataArray type="Float32" Name="V5" format="ascii">
0.000000e+00
0.000000e+00
5.235988e-02
5.235988e-02
5.235988e-02
5.235988e-02
1.047198e-01
1.047198e-01
1.047198e-01
1.047198e-01
1.570796e-01
1.570796e-01
1.570796e-01
1.570796e-01
2.094395e-01
2.094395e-01
2.094395e-01
2.094395e-01
2.617994e-01
2.617994e-01
2.617994e-01
2.617994e-01
3.141593e-01
3.141593e-01
3.141593e-01
3.141593e-01
3.665191e-01
3.665191e-01
3.665191e-01
3.665191e-01
4.188790e-01
4.188790e-01
4.188790e-01
4.188790e-01
4.712389e-01
4.712389e-01
4.712389e-01
4.712389e-01
5.235988e-01
5.235988e-01
5.235988e-01
5.235988e-01
5.759587e-01
5.759587e-01
5.759587e-01
5.759587e-01
6.283185e-01
6.283185e-01
6.283185e-01
6.283185e-01
6.806784e-01
6.806784e-01
6.806784e-01
6.806784e-01
7.330383e-01
7.330383e-01
7.330383e-01
7.330383e-01
7.853982e-01
7.853982e-01
7.853982e-01
7.853982e-01
8.377580e-01
8.377580e-01
8.377580e-01
8.377580e-01
8.901179e-01
8.901179e-01
8.901179e-01
8.901179e-01
9.424778e-01
9.424778e-01
9.424778e-01
9.424778e-01
9.948377e-01
9.948377e-01
9.948377e-01
9.948377e-01
1.047198e+00
1.047198e+00
1.047198e+00
1.047198e+00
1.099557e+00
1.099557e+00
1.099557e+00
1.099557e+00
1.151917e+00
1.151917e+00
1.151917e+00
1.151917e+00
1.204277e+00
1.204277e+00
1.204277e+00
1.204277e+00
1.256637e+00
1.256637e+00
1.256637e+00
1.256637e+00
1.308997e+00
1.308997e+00
1.308997e+00
1.308997e+00
1.361357e+00
1.361357e+00
1.361357e+00
1.361357e+00
1.413717e+00
1.413717e+00
1.413717e+00
1.413717e+00
1.466077e+00
1.466077e+00
1.466077e+00
1.466077e+00
1.518436e+00
1.518436e+00
1.518436e+00
1.518436e+00
1.570796e+00
1.570796e+00
</DataArray>
</PointData>
</Piece></UnstructuredGrid>
</VTKFile>
