<?xml version="1.0"?>
<VTKFile type="UnstructuredGrid" version="0.1" byte_order="LittleEndian" compressor="vtkZLibDataCompressor">
<UnstructuredGrid>
<Piece NumberOfPoints="120" NumberOfCells="30">
<Points>
<DataArray type="Float32" NumberOfComponents="3" format="ascii">
0.000000e+00 5.556510e-01 0.000000e+00
0.000000e+00 6.400000e-01 0.000000e+00
6.470476e-02 5.556969e-01 0.000000e+00
6.462965e-02 6.400000e-01 0.000000e+00
6.470476e-02 5.556969e-01 0.000000e+00
6.462965e-02 6.400000e-01 0.000000e+00
1.294047e-01 5.557973e-01 0.000000e+00
1.292535e-01 6.400000e-01 0.000000e+00
1.294047e-01 5.557973e-01 0.000000e+00
1.292535e-01 6.400000e-01 0.000000e+00
1.940918e-01 5.559646e-01 0.000000e+00
1.938666e-01 6.400000e-01 0.000000e+00
1.940918e-01 5.559646e-01 0.000000e+00
1.938666e-01 6.400000e-01 0.000000e+00
2.587597e-01 5.561981e-01 0.000000e+00
2.584629e-01 6.400000e-01 0.000000e+00
2.587597e-01 5.561981e-01 0.000000e+00
2.584629e-01 6.400000e-01 0.000000e+00
3.234010e-01 5.564968e-01 0.000000e+00
3.230371e-01 6.400000e-01 0.000000e+00
3.234010e-01 5.564968e-01 0.000000e+00
3.230371e-01 6.400000e-01 0.000000e+00
3.880074e-01 5.568598e-01 0.000000e+00
3.875840e-01 6.400000e-01 0.000000e+00
3.880074e-01 5.568598e-01 0.000000e+00
3.875840e-01 6.400000e-01 0.000000e+00
4.525690e-01 5.572862e-01 0.000000e+00
4.520998e-01 6.400000e-01 0.000000e+00
4.525690e-01 5.572862e-01 0.000000e+00
4.520998e-01 6.400000e-01 0.000000e+00
5.170735e-01 5.577750e-01 0.000000e+00
5.165832e-01 6.400000e-01 0.000000e+00
5.170735e-01 5.577750e-01 0.000000e+00
5.165832e-01 6.400000e-01 0.000000e+00
5.815044e-01 5.583259e-01 0.000000e+00
5.810381e-01 6.400000e-01 0.000000e+00
5.815044e-01 5.583259e-01 0.000000e+00
5.810381e-01 6.400000e-01 0.000000e+00
6.458379e-01 5.589394e-01 0.000000e+00
6.454796e-01 6.400000e-01 0.000000e+00
6.458379e-01 5.589394e-01 0.000000e+00
6.454796e-01 6.400000e-01 0.000000e+00
7.100377e-01 5.596175e-01 0.000000e+00
7.099433e-01 6.400000e-01 0.000000e+00
7.100377e-01 5.596175e-01 0.000000e+00
7.099433e-01 6.400000e-01 0.000000e+00
7.740430e-01 5.603636e-01 0.000000e+00
7.745031e-01 6.400000e-01 0.000000e+00
7.740430e-01 5.603636e-01 0.000000e+00
7.745031e-01 6.400000e-01 0.000000e+00
8.377468e-01 5.611816e-01 0.000000e+00
8.392989e-01 6.400000e-01 0.000000e+00
8.377468e-01 5.611816e-01 0.000000e+00
8.392989e-01 6.400000e-01 0.000000e+00
9.009495e-01 5.620645e-01 0.000000e+00
9.045729e-01 6.400000e-01 0.000000e+00
9.009495e-01 5.620645e-01 0.000000e+00
9.045729e-01 6.400000e-01 0.000000e+00
9.632594e-01 5.629374e-01 0.000000e+00
9.706730e-01 6.400000e-01 0.000000e+00
9.632594e-01 5.629374e-01 0.000000e+00
9.706730e-01 6.400000e-01 0.000000e+00
1.024012e+00 5.634848e-01 0.000000e+00
1.037660e+00 6.400000e-01 0.000000e+00
1.024012e+00 5.634848e-01 0.000000e+00
1.037660e+00 6.400000e-01 0.000000e+00
1.083485e+00 5.615493e-01 0.000000e+00
1.102579e+00 6.369924e-01 0.000000e+00
1.083485e+00 5.615493e-01 0.000000e+00
1.102579e+00 6.369924e-01 0.000000e+00
1.140305e+00 5.495839e-01 0.000000e+00
1.166130e+00 6.216932e-01 0.000000e+00
1.140305e+00 5.495839e-01 0.000000e+00
1.166130e+00 6.216932e-01 0.000000e+00
1.193940e+00 5.294024e-01 0.000000e+00
1.227430e+00 5.971675e-01 0.000000e+00
1.193940e+00 5.294024e-01 0.000000e+00
1.227430e+00 5.971675e-01 0.000000e+00
1.243932e+00 5.017094e-01 0.000000e+00
1.284826e+00 5.642774e-01 0.000000e+00
1.243932e+00 5.017094e-01 0.000000e+00
1.284826e+00 5.642774e-01 0.000000e+00
1.289880e+00 4.675766e-01 0.000000e+00
1.337407e+00 5.243212e-01 0.000000e+00
1.289880e+00 4.675766e-01 0.000000e+00
1.337407e+00 5.243212e-01 0.000000e+00
1.331462e+00 4.279368e-01 0.000000e+00
1.384673e+00 4.784829e-01 0.000000e+00
1.331462e+00 4.279368e-01 0.000000e+00
1.384673e+00 4.784829e-01 0.000000e+00
1.368448e+00 3.836479e-01 0.000000e+00
1.426393e+00 4.278123e-01 0.000000e+00
1.368448e+00 3.836479e-01 0.000000e+00
1.426393e+00 4.278123e-01 0.000000e+00
1.400680e+00 3.354823e-01 0.000000e+00
1.462483e+00 3.732087e-01 0.000000e+00
1.400680e+00 3.354823e-01 0.000000e+00
1.462483e+00 3.732087e-01 0.000000e+00
1.428055e+00 2.841353e-01 0.000000e+00
1.492935e+00 3.154410e-01 0.000000e+00
1.428055e+00 2.841353e-01 0.000000e+00
1.492935e+00 3.154410e-01 0.000000e+00
1.450507e+00 2.302350e-01 0.000000e+00
1.517776e+00 2.551730e-01 0.000000e+00
1.450507e+00 2.302350e-01 0.000000e+00
1.517776e+00 2.551730e-01 0.000000e+00
1.467997e+00 1.743550e-01 0.000000e+00
1.537044e+00 1.929884e-01 0.000000e+00
1.467997e+00 1.743550e-01 0.000000e+00
1.537044e+00 1.929884e-01 0.000000e+00
1.480502e+00 1.170261e-01 0.000000e+00
1.550777e+00 1.294125e-01 0.000000e+00
1.480502e+00 1.170261e-01 0.000000e+00
1.550777e+00 1.294125e-01 0.000000e+00
1.488009e+00 5.874785e-02 0.000000e+00
1.559005e+00 6.492986e-02 0.000000e+00
1.488009e+00 5.874785e-02 0.000000e+00
1.559005e+00 6.492986e-02 0.000000e+00
1.490512e+00 7.298420e-12 0.000000e+00
1.561745e+00 7.647220e-12 0.000000e+00
</DataArray>
</Points>
<Cells>
<DataArray type="Int32" Name="connectivity" format="ascii">
0 1 3 2
4 5 7 6
8 9 11 10
12 13 15 14
16 17 19 18
20 21 23 22
24 25 27 26
28 29 31 30
32 33 35 34
36 37 39 38
40 41 43 42
44 45 47 46
48 49 51 50
52 53 55 54
56 57 59 58
60 61 63 62
64 65 67 66
68 69 71 70
72 73 75 74
76 77 79 78
80 81 83 82
84 85 87 86
88 89 91 90
92 93 95 94
96 97 99 98
100 101 103 102
104 105 107 106
108 109 111 110
112 113 115 114
116 117 119 118
</DataArray>
<DataArray type="Int32" Name="offsets" format="ascii">
4
8
12
16
20
24
28
32
36
40
44
48
52
56
60
64
68
72
76
80
84
88
92
96
100
104
108
112
116
120
</DataArray>
<DataArray type="UInt8" Name="types" format="ascii">
9
9
9
9
9
9
9
9
9
9
9
9
9
9
9
9
9
9
9
9
9
9
9
9
9
9
9
9
9
9
</DataArray>
</Cells>
<PointData>
<DataArray type="Float32" Name="V1" format="ascii">
3.075652e+01
-1.086139e+00
3.079328e+01
-1.049385e+00
3.085408e+01
-1.088419e+00
3.095590e+01
-9.865977e-01
3.107963e+01
-1.066636e+00
3.125236e+01
-8.939042e-01
3.143822e+01
-1.015916e+00
3.168371e+01
-7.704280e-01
3.193343e+01
-9.354538e-01
3.225454e+01
-6.143440e-01
3.256997e+01
-8.236278e-01
3.297068e+01
-4.229237e-01
3.335336e+01
-6.776639e-01
3.383892e+01
-1.921094e-01
3.428905e+01
-4.928857e-01
3.486632e+01
8.438397e-02
3.538077e+01
-2.612357e-01
3.605879e+01
4.167833e-01
3.662701e+01
3.160676e-02
3.741799e+01
8.225911e-01
3.801406e+01
4.119333e-01
3.893521e+01
1.333092e+00
3.950225e+01
9.293943e-01
4.057895e+01
2.006098e+00
4.099954e+01
1.680202e+00
4.227035e+01
2.951013e+00
4.231236e+01
2.855567e+00
4.383565e+01
4.378859e+00
4.305779e+01
4.843766e+00
4.492936e+01
6.715337e+00
4.247770e+01
8.544922e+00
4.496033e+01
1.102755e+01
3.975961e+01
1.625757e+01
4.329311e+01
1.979107e+01
4.003357e+01
2.162119e+01
4.225595e+01
2.384356e+01
4.152283e+01
2.437516e+01
4.366888e+01
2.652121e+01
4.391554e+01
2.634330e+01
4.599095e+01
2.841871e+01
4.674931e+01
2.782419e+01
4.870355e+01
2.977843e+01
4.968130e+01
2.899613e+01
5.146552e+01
3.078036e+01
5.250215e+01
2.995034e+01
5.408715e+01
3.153534e+01
5.508660e+01
3.074009e+01
5.645807e+01
3.211156e+01
5.736385e+01
3.139704e+01
5.851723e+01
3.255042e+01
5.929668e+01
3.194088e+01
6.023281e+01
3.287701e+01
6.086777e+01
3.238426e+01
6.158999e+01
3.310649e+01
6.207089e+01
3.273558e+01
6.258319e+01
3.324788e+01
6.290538e+01
3.300048e+01
6.321121e+01
3.330631e+01
6.337267e+01
3.318267e+01
6.347435e+01
3.328434e+01
</DataArray>
<DataArray type="Float32" Name="V2" format="ascii">
5.556510e-01
6.400000e-01
5.583218e-01
6.425054e-01
5.583218e-01
6.425054e-01
5.662791e-01
6.500047e-01
5.662791e-01
6.500047e-01
5.794824e-01
6.624480e-01
5.794824e-01
6.624480e-01
5.978430e-01
6.797519e-01
5.978430e-01
6.797519e-01
6.212370e-01
7.018007e-01
6.212370e-01
7.018007e-01
6.495061e-01
7.284462e-01
6.495061e-01
7.284462e-01
6.824577e-01
7.595096e-01
6.824577e-01
7.595096e-01
7.198656e-01
7.947824e-01
7.198656e-01
7.947824e-01
7.614695e-01
8.340300e-01
7.614695e-01
8.340300e-01
8.069747e-01
8.769960e-01
8.069747e-01
8.769960e-01
8.560489e-01
9.234120e-01
8.560489e-01
9.234120e-01
9.083148e-01
9.730124e-01
9.083148e-01
9.730124e-01
9.633312e-01
1.025561e+00
9.633312e-01
1.025561e+00
1.020548e+00
1.080890e+00
1.020548e+00
1.080890e+00
1.079184e+00
1.138918e+00
1.079184e+00
1.138918e+00
1.138034e+00
1.199376e+00
1.138034e+00
1.199376e+00
1.195420e+00
1.257737e+00
1.195420e+00
1.257737e+00
1.245563e+00
1.308841e+00
1.245563e+00
1.308841e+00
1.289656e+00
1.354650e+00
1.289656e+00
1.354650e+00
1.328131e+00
1.394831e+00
1.328131e+00
1.394831e+00
1.361567e+00
1.429675e+00
1.361567e+00
1.429675e+00
1.390408e+00
1.459578e+00
1.390408e+00
1.459578e+00
1.415043e+00
1.484967e+00
1.415043e+00
1.484967e+00
1.435795e+00
1.506232e+00
1.435795e+00
1.506232e+00
1.452934e+00
1.523706e+00
1.452934e+00
1.523706e+00
1.466678e+00
1.537662e+00
1.466678e+00
1.537662e+00
1.477199e+00
1.548311e+00
1.477199e+00
1.548311e+00
1.484624e+00
1.555809e+00
1.484624e+00
1.555809e+00
1.489044e+00
1.560266e+00
1.489044e+00
1.560266e+00
1.490512e+00
1.561745e+00
</DataArray>
<DataArray type="Float32" Name="V3" format="ascii">
0.000000e+00
0.000000e+00
3.553315e-02
3.104606e-02
3.553315e-02
3.104606e-02
7.059912e-02
6.164725e-02
7.059912e-02
6.164725e-02
1.047302e-01
9.136168e-02
1.047302e-01
9.136168e-02
1.374651e-01
1.197514e-01
1.374651e-01
1.197514e-01
1.683494e-01
1.463857e-01
1.683494e-01
1.463857e-01
1.969378e-01
1.708434e-01
1.969378e-01
1.708434e-01
2.227961e-01
1.927161e-01
2.227961e-01
1.927161e-01
2.455026e-01
2.116107e-01
2.455026e-01
2.116107e-01
2.646495e-01
2.271548e-01
2.646495e-01
2.271548e-01
2.798424e-01
2.390017e-01
2.798424e-01
2.390017e-01
2.906982e-01
2.468396e-01
2.906982e-01
2.468396e-01
2.968405e-01
2.504036e-01
2.968405e-01
2.504036e-01
2.978885e-01
2.494927e-01
2.978885e-01
2.494927e-01
2.934414e-01
2.439851e-01
2.934414e-01
2.439851e-01
2.830704e-01
2.338211e-01
2.830704e-01
2.338211e-01
2.664466e-01
2.187177e-01
2.664466e-01
2.187177e-01
2.454533e-01
1.988391e-01
2.454533e-01
1.988391e-01
2.256316e-01
1.824737e-01
2.256316e-01
1.824737e-01
2.062723e-01
1.676795e-01
2.062723e-01
1.676795e-01
1.874727e-01
1.537346e-01
1.874727e-01
1.537346e-01
1.689794e-01
1.399966e-01
1.689794e-01
1.399966e-01
1.506146e-01
1.260813e-01
1.506146e-01
1.260813e-01
1.322416e-01
1.117763e-01
1.322416e-01
1.117763e-01
1.137712e-01
9.698945e-02
1.137712e-01
9.698945e-02
9.515410e-02
8.170733e-02
9.515410e-02
8.170733e-02
7.637348e-02
6.596646e-02
7.637348e-02
6.596646e-02
5.743690e-02
4.983426e-02
5.743690e-02
4.983426e-02
3.836962e-02
3.339684e-02
3.836962e-02
3.339684e-02
1.920904e-02
1.675114e-02
1.920904e-02
1.675114e-02
0.000000e+00
0.000000e+00
</DataArray>
<DataArray type="Float32" Name="V4" format="ascii">
8.500000e-01
1.000000e+00
8.500000e-01
1.000000e+00
8.500000e-01
1.000000e+00
8.500000e-01
1.000000e+00
8.500000e-01
1.000000e+00
8.500000e-01
1.000000e+00
8.500000e-01
1.000000e+00
8.500000e-01
1.000000e+00
8.500000e-01
1.000000e+00
8.500000e-01
1.000000e+00
8.500000e-01
1.000000e+00
8.500000e-01
1.000000e+00
8.500000e-01
1.000000e+00
8.500000e-01
1.000000e+00
8.500000e-01
1.000000e+00
8.500000e-01
1.000000e+00
8.500000e-01
1.000000e+00
8.500000e-01
1.000000e+00
8.500000e-01
1.000000e+00
8.500000e-01
1.000000e+00
8.500000e-01
1.000000e+00
8.500000e-01
1.000000e+00
8.500000e-01
1.000000e+00
8.500000e-01
1.000000e+00
8.500000e-01
1.000000e+00
8.500000e-01
1.000000e+00
8.500000e-01
1.000000e+00
8.500000e-01
1.000000e+00
8.500000e-01
1.000000e+00
8.500000e-01
1.000000e+00
8.500000e-01
1.000000e+00
8.500000e-01
1.000000e+00
8.500000e-01
1.000000e+00
8.500000e-01
1.000000e+00
8.500000e-01
1.000000e+00
8.500000e-01
1.000000e+00
8.500000e-01
1.000000e+00
8.500000e-01
1.000000e+00
8.500000e-01
1.000000e+00
8.500000e-01
1.000000e+00
8.500000e-01
1.000000e+00
8.500000e-01
1.000000e+00
8.500000e-01
1.000000e+00
8.500000e-01
1.000000e+00
8.500000e-01
1.000000e+00
8.500000e-01
1.000000e+00
8.500000e-01
1.000000e+00
8.500000e-01
1.000000e+00
8.500000e-01
1.000000e+00
8.500000e-01
1.000000e+00
8.500000e-01
1.000000e+00
8.500000e-01
1.000000e+00
8.500000e-01
1.000000e+00
8.500000e-01
1.000000e+00
8.500000e-01
1.000000e+00
8.500000e-01
1.000000e+00
8.500000e-01
1.000000e+00
8.500000e-01
1.000000e+00
8.500000e-01
1.000000e+00
8.500000e-01
1.000000e+00
</DataArray>
<DataArray type="Float32" Name="V5" format="ascii">
0.000000e+00
0.000000e+00
5.235988e-02
5.235988e-02
5.235988e-02
5.235988e-02
1.047198e-01
1.047198e-01
1.047198e-01
1.047198e-01
1.570796e-01
1.570796e-01
1.570796e-01
1.570796e-01
2.094395e-01
2.094395e-01
2.094395e-01
2.094395e-01
2.617994e-01
2.617994e-01
2.617994e-01
2.617994e-01
3.141593e-01
3.141593e-01
3.141593e-01
3.141593e-01
3.665191e-01
3.665191e-01
3.665191e-01
3.665191e-01
4.188790e-01
4.188790e-01
4.188790e-01
4.188790e-01
4.712389e-01
4.712389e-01
4.712389e-01
4.712389e-01
5.235988e-01
5.235988e-01
5.235988e-01
5.235988e-01
5.759587e-01
5.759587e-01
5.759587e-01
5.759587e-01
6.283185e-01
6.283185e-01
6.283185e-01
6.283185e-01
6.806784e-01
6.806784e-01
6.806784e-01
6.806784e-01
7.330383e-01
7.330383e-01
7.330383e-01
7.330383e-01
7.853982e-01
7.853982e-01
7.853982e-01
7.853982e-01
8.377580e-01
8.377580e-01
8.377580e-01
8.377580e-01
8.901179e-01
8.901179e-01
8.901179e-01
8.901179e-01
9.424778e-01
9.424778e-01
9.424778e-01
9.424778e-01
9.948377e-01
9.948377e-01
9.948377e-01
9.948377e-01
1.047198e+00
1.047198e+00
1.047198e+00
1.047198e+00
1.099557e+00
1.099557e+00
1.099557e+00
1.099557e+00
1.151917e+00
1.151917e+00
1.151917e+00
1.151917e+00
1.204277e+00
1.204277e+00
1.204277e+00
1.204277e+00
1.256637e+00
1.256637e+00
1.256637e+00
1.256637e+00
1.308997e+00
1.308997e+00
1.308997e+00
1.308997e+00
1.361357e+00
1.361357e+00
1.361357e+00
1.361357e+00
1.413717e+00
1.413717e+00
1.413717e+00
1.413717e+00
1.466077e+00
1.466077e+00
1.466077e+00
1.466077e+00
1.518436e+00
1.518436e+00
1.518436e+00
1.518436e+00
1.570796e+00
1.570796e+00
</DataArray>
</PointData>
</Piece></UnstructuredGrid>
</VTKFile>
