<?xml version="1.0"?>
<VTKFile type="UnstructuredGrid" version="0.1" byte_order="LittleEndian" compressor="vtkZLibDataCompressor">
<UnstructuredGrid>
<Piece NumberOfPoints="120" NumberOfCells="30">
<Points>
<DataArray type="Float32" NumberOfComponents="3" format="ascii">
0.000000e+00 3.887544e-01 0.000000e+00
0.000000e+00 4.300000e-01 0.000000e+00
9.250652e-02 3.887965e-01 0.000000e+00
9.249750e-02 4.300000e-01 0.000000e+00
9.250652e-02 3.887965e-01 0.000000e+00
9.249750e-02 4.300000e-01 0.000000e+00
1.850037e-01 3.888435e-01 0.000000e+00
1.849854e-01 4.300000e-01 0.000000e+00
1.850037e-01 3.888435e-01 0.000000e+00
1.849854e-01 4.300000e-01 0.000000e+00
2.774774e-01 3.889206e-01 0.000000e+00
2.774496e-01 4.300000e-01 0.000000e+00
2.774774e-01 3.889206e-01 0.000000e+00
2.774496e-01 4.300000e-01 0.000000e+00
3.699158e-01 3.890283e-01 0.000000e+00
3.698784e-01 4.300000e-01 0.000000e+00
3.699158e-01 3.890283e-01 0.000000e+00
3.698784e-01 4.300000e-01 0.000000e+00
4.623069e-01 3.891664e-01 0.000000e+00
4.622596e-01 4.300000e-01 0.000000e+00
4.623069e-01 3.891664e-01 0.000000e+00
4.622596e-01 4.300000e-01 0.000000e+00
5.546378e-01 3.893344e-01 0.000000e+00
5.545804e-01 4.300000e-01 0.000000e+00
5.546378e-01 3.893344e-01 0.000000e+00
5.545804e-01 4.300000e-01 0.000000e+00
6.468955e-01 3.895320e-01 0.000000e+00
6.468275e-01 4.300000e-01 0.000000e+00
6.468955e-01 3.895320e-01 0.000000e+00
6.468275e-01 4.300000e-01 0.000000e+00
7.390659e-01 3.897585e-01 0.000000e+00
7.389871e-01 4.300000e-01 0.000000e+00
7.390659e-01 3.897585e-01 0.000000e+00
7.389871e-01 4.300000e-01 0.000000e+00
8.311341e-01 3.900133e-01 0.000000e+00
8.310442e-01 4.300000e-01 0.000000e+00
8.311341e-01 3.900133e-01 0.000000e+00
8.310442e-01 4.300000e-01 0.000000e+00
9.230843e-01 3.902958e-01 0.000000e+00
9.229833e-01 4.300000e-01 0.000000e+00
9.230843e-01 3.902958e-01 0.000000e+00
9.229833e-01 4.300000e-01 0.000000e+00
1.014899e+00 3.906051e-01 0.000000e+00
1.014788e+00 4.300000e-01 0.000000e+00
1.014899e+00 3.906051e-01 0.000000e+00
1.014788e+00 4.300000e-01 0.000000e+00
1.106561e+00 3.909403e-01 0.000000e+00
1.106441e+00 4.300000e-01 0.000000e+00
1.106561e+00 3.909403e-01 0.000000e+00
1.106441e+00 4.300000e-01 0.000000e+00
1.198048e+00 3.913004e-01 0.000000e+00
1.197924e+00 4.300000e-01 0.000000e+00
1.198048e+00 3.913004e-01 0.000000e+00
1.197924e+00 4.300000e-01 0.000000e+00
1.289339e+00 3.916839e-01 0.000000e+00
1.289220e+00 4.300000e-01 0.000000e+00
1.289339e+00 3.916839e-01 0.000000e+00
1.289220e+00 4.300000e-01 0.000000e+00
1.380406e+00 3.920889e-01 0.000000e+00
1.380310e+00 4.300000e-01 0.000000e+00
1.380406e+00 3.920889e-01 0.000000e+00
1.380310e+00 4.300000e-01 0.000000e+00
1.471219e+00 3.925124e-01 0.000000e+00
1.471181e+00 4.300000e-01 0.000000e+00
1.471219e+00 3.925124e-01 0.000000e+00
1.471181e+00 4.300000e-01 0.000000e+00
1.561740e+00 3.929497e-01 0.000000e+00
1.561825e+00 4.300000e-01 0.000000e+00
1.561740e+00 3.929497e-01 0.000000e+00
1.561825e+00 4.300000e-01 0.000000e+00
1.651918e+00 3.933928e-01 0.000000e+00
1.652248e+00 4.300000e-01 0.000000e+00
1.651918e+00 3.933928e-01 0.000000e+00
1.652248e+00 4.300000e-01 0.000000e+00
1.741684e+00 3.938303e-01 0.000000e+00
1.742488e+00 4.300000e-01 0.000000e+00
1.741684e+00 3.938303e-01 0.000000e+00
1.742488e+00 4.300000e-01 0.000000e+00
1.830930e+00 3.942513e-01 0.000000e+00
1.832645e+00 4.300000e-01 0.000000e+00
1.830930e+00 3.942513e-01 0.000000e+00
1.832645e+00 4.300000e-01 0.000000e+00
1.919479e+00 3.946648e-01 0.000000e+00
1.922940e+00 4.300000e-01 0.000000e+00
1.919479e+00 3.946648e-01 0.000000e+00
1.922940e+00 4.300000e-01 0.000000e+00
2.006999e+00 3.951344e-01 0.000000e+00
2.013760e+00 4.300000e-01 0.000000e+00
2.006999e+00 3.951344e-01 0.000000e+00
2.013760e+00 4.300000e-01 0.000000e+00
2.093124e+00 3.957107e-01 0.000000e+00
2.104708e+00 4.300000e-01 0.000000e+00
2.093124e+00 3.957107e-01 0.000000e+00
2.104708e+00 4.300000e-01 0.000000e+00
2.177196e+00 3.842416e-01 0.000000e+00
2.191771e+00 4.155239e-01 0.000000e+00
2.177196e+00 3.842416e-01 0.000000e+00
2.191771e+00 4.155239e-01 0.000000e+00
2.252753e+00 3.490473e-01 0.000000e+00
2.271622e+00 3.770960e-01 0.000000e+00
2.252753e+00 3.490473e-01 0.000000e+00
2.271622e+00 3.770960e-01 0.000000e+00
2.316249e+00 2.970109e-01 0.000000e+00
2.339713e+00 3.206914e-01 0.000000e+00
2.316249e+00 2.970109e-01 0.000000e+00
2.339713e+00 3.206914e-01 0.000000e+00
2.366375e+00 2.327694e-01 0.000000e+00
2.393698e+00 2.510817e-01 0.000000e+00
2.366375e+00 2.327694e-01 0.000000e+00
2.393698e+00 2.510817e-01 0.000000e+00
2.402654e+00 1.598582e-01 0.000000e+00
2.432712e+00 1.722412e-01 0.000000e+00
2.402654e+00 1.598582e-01 0.000000e+00
2.432712e+00 1.722412e-01 0.000000e+00
2.424649e+00 8.131389e-02 0.000000e+00
2.456302e+00 8.753766e-02 0.000000e+00
2.424649e+00 8.131389e-02 0.000000e+00
2.456302e+00 8.753766e-02 0.000000e+00
2.432018e+00 1.190859e-11 0.000000e+00
2.464193e+00 1.206614e-11 0.000000e+00
</DataArray>
</Points>
<Cells>
<DataArray type="Int32" Name="connectivity" format="ascii">
0 1 3 2
4 5 7 6
8 9 11 10
12 13 15 14
16 17 19 18
20 21 23 22
24 25 27 26
28 29 31 30
32 33 35 34
36 37 39 38
40 41 43 42
44 45 47 46
48 49 51 50
52 53 55 54
56 57 59 58
60 61 63 62
64 65 67 66
68 69 71 70
72 73 75 74
76 77 79 78
80 81 83 82
84 85 87 86
88 89 91 90
92 93 95 94
96 97 99 98
100 101 103 102
104 105 107 106
108 109 111 110
112 113 115 114
116 117 119 118
</DataArray>
<DataArray type="Int32" Name="offsets" format="ascii">
4
8
12
16
20
24
28
32
36
40
44
48
52
56
60
64
68
72
76
80
84
88
92
96
100
104
108
112
116
120
</DataArray>
<DataArray type="UInt8" Name="types" format="ascii">
9
9
9
9
9
9
9
9
9
9
9
9
9
9
9
9
9
9
9
9
9
9
9
9
9
9
9
9
9
9
</DataArray>
</Cells>
<PointData>
<DataArray type="Float32" Name="V1" format="ascii">
5.403699e+02
5.143817e+01
5.409093e+02
5.197750e+01
5.416753e+02
5.145068e+01
5.432018e+02
5.297715e+01
5.447597e+02
5.193622e+01
5.473203e+02
5.449682e+01
5.496861e+02
5.292697e+01
5.533047e+02
5.654557e+01
5.565049e+02
5.443168e+01
5.612243e+02
5.915101e+01
5.652935e+02
5.646842e+01
5.711704e+02
6.234535e+01
5.761536e+02
5.906266e+01
5.832599e+02
6.616899e+01
5.892134e+02
6.224743e+01
5.976379e+02
7.067193e+01
6.046303e+02
6.606440e+01
6.144813e+02
7.591541e+01
6.225948e+02
7.056530e+01
6.340036e+02
8.197405e+01
6.433346e+02
7.581396e+01
6.564596e+02
8.893894e+01
6.671191e+02
8.188927e+01
6.821518e+02
9.692196e+01
6.942642e+02
8.888957e+01
7.114372e+02
1.060625e+02
7.251360e+02
9.693942e+01
7.447343e+02
1.165377e+02
7.601509e+02
1.062010e+02
7.825293e+02
1.285794e+02
7.997686e+02
1.168930e+02
8.253780e+02
1.425024e+02
8.444684e+02
1.293255e+02
8.738967e+02
1.587538e+02
8.946934e+02
1.439659e+02
9.287254e+02
1.779979e+02
9.507329e+02
1.615764e+02
9.904195e+02
2.012629e+02
1.012488e+03
1.835219e+02
1.059154e+03
2.301876e+02
1.079010e+03
2.125148e+02
1.133955e+03
2.674600e+02
1.147373e+03
2.543847e+02
1.210955e+03
3.179666e+02
1.204446e+03
3.220640e+02
1.283721e+03
4.013392e+02
1.263415e+03
4.235596e+02
1.349603e+03
5.097481e+02
1.356088e+03
5.036770e+02
1.432525e+03
5.801139e+02
1.462504e+03
5.653246e+02
1.532272e+03
6.350923e+02
1.570312e+03
6.139433e+02
1.630095e+03
6.737264e+02
1.666295e+03
6.515218e+02
1.712313e+03
6.975393e+02
1.739068e+03
6.800942e+02
1.768109e+03
7.091352e+02
1.781959e+03
6.997819e+02
1.791879e+03
7.097020e+02
</DataArray>
<DataArray type="Float32" Name="V2" format="ascii">
3.887544e-01
4.300000e-01
3.931051e-01
4.342516e-01
3.931051e-01
4.342516e-01
4.060515e-01
4.469807e-01
4.060515e-01
4.469807e-01
4.275394e-01
4.681087e-01
4.275394e-01
4.681087e-01
4.574369e-01
4.975055e-01
4.574369e-01
4.975055e-01
4.955597e-01
5.349897e-01
4.955597e-01
5.349897e-01
5.416716e-01
5.803291e-01
5.416716e-01
5.803291e-01
5.954861e-01
6.332418e-01
5.954861e-01
6.332418e-01
6.566673e-01
6.933977e-01
6.566673e-01
6.933977e-01
7.248314e-01
7.604190e-01
7.248314e-01
7.604190e-01
7.995482e-01
8.338826e-01
7.995482e-01
8.338826e-01
8.803428e-01
9.133215e-01
8.803428e-01
9.133215e-01
9.666975e-01
9.982270e-01
9.666975e-01
9.982270e-01
1.058054e+00
1.088051e+00
1.058054e+00
1.088051e+00
1.153814e+00
1.182209e+00
1.153814e+00
1.182209e+00
1.253343e+00
1.280083e+00
1.253343e+00
1.280083e+00
1.355971e+00
1.381027e+00
1.355971e+00
1.381027e+00
1.460991e+00
1.484374e+00
1.460991e+00
1.484374e+00
1.567661e+00
1.589444e+00
1.567661e+00
1.589444e+00
1.675194e+00
1.695568e+00
1.675194e+00
1.695568e+00
1.782758e+00
1.802117e+00
1.782758e+00
1.802117e+00
1.889443e+00
1.908568e+00
1.889443e+00
1.908568e+00
1.994200e+00
2.014558e+00
1.994200e+00
2.014558e+00
2.095910e+00
2.119013e+00
2.095910e+00
2.119013e+00
2.189374e+00
2.212902e+00
2.189374e+00
2.212902e+00
2.266333e+00
2.291818e+00
2.266333e+00
2.291818e+00
2.327385e+00
2.355260e+00
2.327385e+00
2.355260e+00
2.373654e+00
2.403505e+00
2.373654e+00
2.403505e+00
2.406202e+00
2.437389e+00
2.406202e+00
2.437389e+00
2.425582e+00
2.457517e+00
2.425582e+00
2.457517e+00
2.432018e+00
2.464193e+00
</DataArray>
<DataArray type="Float32" Name="V3" format="ascii">
0.000000e+00
0.000000e+00
7.203170e-02
6.986628e-02
7.203170e-02
6.986628e-02
1.433450e-01
1.390248e-01
1.433450e-01
1.390248e-01
2.132206e-01
2.067669e-01
2.132206e-01
2.067669e-01
2.809488e-01
2.723936e-01
2.809488e-01
2.723936e-01
3.458305e-01
3.352163e-01
3.458305e-01
3.352163e-01
4.071810e-01
3.945600e-01
4.071810e-01
3.945600e-01
4.643332e-01
4.497673e-01
4.643332e-01
4.497673e-01
5.166412e-01
5.002015e-01
5.166412e-01
5.002015e-01
5.634835e-01
5.452499e-01
5.634835e-01
5.452499e-01
6.042666e-01
5.843270e-01
6.042666e-01
5.843270e-01
6.384275e-01
6.168781e-01
6.384275e-01
6.168781e-01
6.654376e-01
6.423819e-01
6.654376e-01
6.423819e-01
6.848050e-01
6.603542e-01
6.848050e-01
6.603542e-01
6.960776e-01
6.703508e-01
6.960776e-01
6.703508e-01
6.988457e-01
6.719707e-01
6.988457e-01
6.719707e-01
6.927442e-01
6.648601e-01
6.927442e-01
6.648601e-01
6.774557e-01
6.487155e-01
6.774557e-01
6.487155e-01
6.527118e-01
6.232897e-01
6.527118e-01
6.232897e-01
6.182951e-01
5.883986e-01
6.182951e-01
5.883986e-01
5.740334e-01
5.439317e-01
5.740334e-01
5.439317e-01
5.197765e-01
4.898637e-01
5.197765e-01
4.898637e-01
4.553468e-01
4.262455e-01
4.553468e-01
4.262455e-01
3.806807e-01
3.528203e-01
3.806807e-01
3.528203e-01
3.073552e-01
2.821077e-01
3.073552e-01
2.821077e-01
2.459016e-01
2.236923e-01
2.459016e-01
2.236923e-01
1.910548e-01
1.727701e-01
1.910548e-01
1.727701e-01
1.402790e-01
1.264663e-01
1.402790e-01
1.264663e-01
9.216322e-02
8.298997e-02
9.216322e-02
8.298997e-02
4.569388e-02
4.113524e-02
4.569388e-02
4.113524e-02
0.000000e+00
0.000000e+00
</DataArray>
<DataArray type="Float32" Name="V4" format="ascii">
8.500000e-01
1.000000e+00
8.500000e-01
1.000000e+00
8.500000e-01
1.000000e+00
8.500000e-01
1.000000e+00
8.500000e-01
1.000000e+00
8.500000e-01
1.000000e+00
8.500000e-01
1.000000e+00
8.500000e-01
1.000000e+00
8.500000e-01
1.000000e+00
8.500000e-01
1.000000e+00
8.500000e-01
1.000000e+00
8.500000e-01
1.000000e+00
8.500000e-01
1.000000e+00
8.500000e-01
1.000000e+00
8.500000e-01
1.000000e+00
8.500000e-01
1.000000e+00
8.500000e-01
1.000000e+00
8.500000e-01
1.000000e+00
8.500000e-01
1.000000e+00
8.500000e-01
1.000000e+00
8.500000e-01
1.000000e+00
8.500000e-01
1.000000e+00
8.500000e-01
1.000000e+00
8.500000e-01
1.000000e+00
8.500000e-01
1.000000e+00
8.500000e-01
1.000000e+00
8.500000e-01
1.000000e+00
8.500000e-01
1.000000e+00
8.500000e-01
1.000000e+00
8.500000e-01
1.000000e+00
8.500000e-01
1.000000e+00
8.500000e-01
1.000000e+00
8.500000e-01
1.000000e+00
8.500000e-01
1.000000e+00
8.500000e-01
1.000000e+00
8.500000e-01
1.000000e+00
8.500000e-01
1.000000e+00
8.500000e-01
1.000000e+00
8.500000e-01
1.000000e+00
8.500000e-01
1.000000e+00
8.500000e-01
1.000000e+00
8.500000e-01
1.000000e+00
8.500000e-01
1.000000e+00
8.500000e-01
1.000000e+00
8.500000e-01
1.000000e+00
8.500000e-01
1.000000e+00
8.500000e-01
1.000000e+00
8.500000e-01
1.000000e+00
8.500000e-01
1.000000e+00
8.500000e-01
1.000000e+00
8.500000e-01
1.000000e+00
8.500000e-01
1.000000e+00
8.500000e-01
1.000000e+00
8.500000e-01
1.000000e+00
8.500000e-01
1.000000e+00
8.500000e-01
1.000000e+00
8.500000e-01
1.000000e+00
8.500000e-01
1.000000e+00
8.500000e-01
1.000000e+00
8.500000e-01
1.000000e+00
</DataArray>
<DataArray type="Float32" Name="V5" format="ascii">
0.000000e+00
0.000000e+00
5.235988e-02
5.235988e-02
5.235988e-02
5.235988e-02
1.047198e-01
1.047198e-01
1.047198e-01
1.047198e-01
1.570796e-01
1.570796e-01
1.570796e-01
1.570796e-01
2.094395e-01
2.094395e-01
2.094395e-01
2.094395e-01
2.617994e-01
2.617994e-01
2.617994e-01
2.617994e-01
3.141593e-01
3.141593e-01
3.141593e-01
3.141593e-01
3.665191e-01
3.665191e-01
3.665191e-01
3.665191e-01
4.188790e-01
4.188790e-01
4.188790e-01
4.188790e-01
4.712389e-01
4.712389e-01
4.712389e-01
4.712389e-01
5.235988e-01
5.235988e-01
5.235988e-01
5.235988e-01
5.759587e-01
5.759587e-01
5.759587e-01
5.759587e-01
6.283185e-01
6.283185e-01
6.283185e-01
6.283185e-01
6.806784e-01
6.806784e-01
6.806784e-01
6.806784e-01
7.330383e-01
7.330383e-01
7.330383e-01
7.330383e-01
7.853982e-01
7.853982e-01
7.853982e-01
7.853982e-01
8.377580e-01
8.377580e-01
8.377580e-01
8.377580e-01
8.901179e-01
8.901179e-01
8.901179e-01
8.901179e-01
9.424778e-01
9.424778e-01
9.424778e-01
9.424778e-01
9.948377e-01
9.948377e-01
9.948377e-01
9.948377e-01
1.047198e+00
1.047198e+00
1.047198e+00
1.047198e+00
1.099557e+00
1.099557e+00
1.099557e+00
1.099557e+00
1.151917e+00
1.151917e+00
1.151917e+00
1.151917e+00
1.204277e+00
1.204277e+00
1.204277e+00
1.204277e+00
1.256637e+00
1.256637e+00
1.256637e+00
1.256637e+00
1.308997e+00
1.308997e+00
1.308997e+00
1.308997e+00
1.361357e+00
1.361357e+00
1.361357e+00
1.361357e+00
1.413717e+00
1.413717e+00
1.413717e+00
1.413717e+00
1.466077e+00
1.466077e+00
1.466077e+00
1.466077e+00
1.518436e+00
1.518436e+00
1.518436e+00
1.518436e+00
1.570796e+00
1.570796e+00
</DataArray>
</PointData>
</Piece></UnstructuredGrid>
</VTKFile>
