<?xml version="1.0"?>
<VTKFile type="UnstructuredGrid" version="0.1" byte_order="LittleEndian" compressor="vtkZLibDataCompressor">
<UnstructuredGrid>
<Piece NumberOfPoints="120" NumberOfCells="30">
<Points>
<DataArray type="Float32" NumberOfComponents="3" format="ascii">
0.000000e+00 8.226433e-01 0.000000e+00
0.000000e+00 9.300000e-01 0.000000e+00
5.735678e-02 8.227110e-01 0.000000e+00
5.731248e-02 9.300000e-01 0.000000e+00
5.735678e-02 8.227110e-01 0.000000e+00
5.731248e-02 9.300000e-01 0.000000e+00
1.146985e-01 8.228923e-01 0.000000e+00
1.146604e-01 9.300000e-01 0.000000e+00
1.146985e-01 8.228923e-01 0.000000e+00
1.146604e-01 9.300000e-01 0.000000e+00
1.719968e-01 8.232065e-01 0.000000e+00
1.720989e-01 9.300000e-01 0.000000e+00
1.719968e-01 8.232065e-01 0.000000e+00
1.720989e-01 9.300000e-01 0.000000e+00
2.291957e-01 8.236674e-01 0.000000e+00
2.297207e-01 9.300000e-01 0.000000e+00
2.291957e-01 8.236674e-01 0.000000e+00
2.297207e-01 9.300000e-01 0.000000e+00
2.861801e-01 8.242790e-01 0.000000e+00
2.876798e-01 9.300000e-01 0.000000e+00
2.861801e-01 8.242790e-01 0.000000e+00
2.876798e-01 9.300000e-01 0.000000e+00
3.427222e-01 8.249886e-01 0.000000e+00
3.461960e-01 9.300000e-01 0.000000e+00
3.427222e-01 8.249886e-01 0.000000e+00
3.461960e-01 9.300000e-01 0.000000e+00
3.984056e-01 8.255330e-01 0.000000e+00
4.054791e-01 9.300000e-01 0.000000e+00
3.984056e-01 8.255330e-01 0.000000e+00
4.054791e-01 9.300000e-01 0.000000e+00
4.527567e-01 8.252823e-01 0.000000e+00
4.652987e-01 9.300000e-01 0.000000e+00
4.527567e-01 8.252823e-01 0.000000e+00
4.652987e-01 9.300000e-01 0.000000e+00
5.063549e-01 8.224194e-01 0.000000e+00
5.243656e-01 9.269989e-01 0.000000e+00
5.063549e-01 8.224194e-01 0.000000e+00
5.243656e-01 9.269989e-01 0.000000e+00
5.582044e-01 8.143385e-01 0.000000e+00
5.831457e-01 9.164734e-01 0.000000e+00
5.582044e-01 8.143385e-01 0.000000e+00
5.831457e-01 9.164734e-01 0.000000e+00
6.086372e-01 8.014979e-01 0.000000e+00
6.413032e-01 9.005201e-01 0.000000e+00
6.086372e-01 8.014979e-01 0.000000e+00
6.413032e-01 9.005201e-01 0.000000e+00
6.576470e-01 7.839258e-01 0.000000e+00
6.979769e-01 8.792711e-01 0.000000e+00
6.576470e-01 7.839258e-01 0.000000e+00
6.979769e-01 8.792711e-01 0.000000e+00
7.050706e-01 7.620002e-01 0.000000e+00
7.526515e-01 8.532000e-01 0.000000e+00
7.050706e-01 7.620002e-01 0.000000e+00
7.526515e-01 8.532000e-01 0.000000e+00
7.507102e-01 7.360548e-01 0.000000e+00
8.049808e-01 8.227582e-01 0.000000e+00
7.507102e-01 7.360548e-01 0.000000e+00
8.049808e-01 8.227582e-01 0.000000e+00
7.943747e-01 7.064240e-01 0.000000e+00
8.547390e-01 7.883746e-01 0.000000e+00
7.943747e-01 7.064240e-01 0.000000e+00
8.547390e-01 7.883746e-01 0.000000e+00
8.358897e-01 6.734259e-01 0.000000e+00
9.017681e-01 7.504357e-01 0.000000e+00
8.358897e-01 6.734259e-01 0.000000e+00
9.017681e-01 7.504357e-01 0.000000e+00
8.751010e-01 6.373602e-01 0.000000e+00
9.459506e-01 7.092881e-01 0.000000e+00
8.751010e-01 6.373602e-01 0.000000e+00
9.459506e-01 7.092881e-01 0.000000e+00
9.118735e-01 5.985078e-01 0.000000e+00
9.871927e-01 6.652438e-01 0.000000e+00
9.118735e-01 5.985078e-01 0.000000e+00
9.871927e-01 6.652438e-01 0.000000e+00
9.460894e-01 5.571323e-01 0.000000e+00
1.025415e+00 6.185870e-01 0.000000e+00
9.460894e-01 5.571323e-01 0.000000e+00
1.025415e+00 6.185870e-01 0.000000e+00
9.776454e-01 5.134821e-01 0.000000e+00
1.060549e+00 5.695801e-01 0.000000e+00
9.776454e-01 5.134821e-01 0.000000e+00
1.060549e+00 5.695801e-01 0.000000e+00
1.006451e+00 4.677932e-01 0.000000e+00
1.092531e+00 5.184686e-01 0.000000e+00
1.006451e+00 4.677932e-01 0.000000e+00
1.092531e+00 5.184686e-01 0.000000e+00
1.032427e+00 4.202910e-01 0.000000e+00
1.121304e+00 4.654857e-01 0.000000e+00
1.032427e+00 4.202910e-01 0.000000e+00
1.121304e+00 4.654857e-01 0.000000e+00
1.055504e+00 3.711928e-01 0.000000e+00
1.146819e+00 4.108549e-01 0.000000e+00
1.055504e+00 3.711928e-01 0.000000e+00
1.146819e+00 4.108549e-01 0.000000e+00
1.075623e+00 3.207091e-01 0.000000e+00
1.169027e+00 3.547930e-01 0.000000e+00
1.075623e+00 3.207091e-01 0.000000e+00
1.169027e+00 3.547930e-01 0.000000e+00
1.092731e+00 2.690455e-01 0.000000e+00
1.187890e+00 2.975113e-01 0.000000e+00
1.092731e+00 2.690455e-01 0.000000e+00
1.187890e+00 2.975113e-01 0.000000e+00
1.106787e+00 2.164036e-01 0.000000e+00
1.203372e+00 2.392177e-01 0.000000e+00
1.106787e+00 2.164036e-01 0.000000e+00
1.203372e+00 2.392177e-01 0.000000e+00
1.117756e+00 1.629823e-01 0.000000e+00
1.215443e+00 1.801172e-01 0.000000e+00
1.117756e+00 1.629823e-01 0.000000e+00
1.215443e+00 1.801172e-01 0.000000e+00
1.125609e+00 1.089780e-01 0.000000e+00
1.224082e+00 1.204130e-01 0.000000e+00
1.125609e+00 1.089780e-01 0.000000e+00
1.224082e+00 1.204130e-01 0.000000e+00
1.130329e+00 5.458584e-02 0.000000e+00
1.229272e+00 6.030686e-02 0.000000e+00
1.130329e+00 5.458584e-02 0.000000e+00
1.229272e+00 6.030686e-02 0.000000e+00
1.131904e+00 5.542470e-12 0.000000e+00
1.231004e+00 6.027720e-12 0.000000e+00
</DataArray>
</Points>
<Cells>
<DataArray type="Int32" Name="connectivity" format="ascii">
0 1 3 2
4 5 7 6
8 9 11 10
12 13 15 14
16 17 19 18
20 21 23 22
24 25 27 26
28 29 31 30
32 33 35 34
36 37 39 38
40 41 43 42
44 45 47 46
48 49 51 50
52 53 55 54
56 57 59 58
60 61 63 62
64 65 67 66
68 69 71 70
72 73 75 74
76 77 79 78
80 81 83 82
84 85 87 86
88 89 91 90
92 93 95 94
96 97 99 98
100 101 103 102
104 105 107 106
108 109 111 110
112 113 115 114
116 117 119 118
</DataArray>
<DataArray type="Int32" Name="offsets" format="ascii">
4
8
12
16
20
24
28
32
36
40
44
48
52
56
60
64
68
72
76
80
84
88
92
96
100
104
108
112
116
120
</DataArray>
<DataArray type="UInt8" Name="types" format="ascii">
9
9
9
9
9
9
9
9
9
9
9
9
9
9
9
9
9
9
9
9
9
9
9
9
9
9
9
9
9
9
</DataArray>
</Cells>
<PointData>
<DataArray type="Float32" Name="V1" format="ascii">
1.252485e+01
-3.080141e-01
1.254213e+01
-2.907341e-01
1.255103e+01
-2.981381e-01
1.259539e+01
-2.537822e-01
1.260524e+01
-2.619664e-01
1.268022e+01
-1.869911e-01
1.266456e+01
-1.795206e-01
1.277282e+01
-7.126265e-02
1.267794e+01
-1.131668e-02
1.282858e+01
1.393304e-01
1.254927e+01
3.275105e-01
1.276859e+01
5.468218e-01
1.211653e+01
1.007458e+00
1.248321e+01
1.374135e+00
1.112892e+01
2.411997e+00
1.183584e+01
3.118913e+00
9.744854e+00
5.126956e+00
1.057570e+01
5.957800e+00
9.425694e+00
6.671439e+00
9.741308e+00
6.987053e+00
9.332324e+00
7.324958e+00
9.638590e+00
7.631224e+00
9.475933e+00
7.769676e+00
9.767397e+00
8.061140e+00
9.753819e+00
8.074754e+00
1.002393e+01
8.344866e+00
1.008477e+01
8.294929e+00
1.032957e+01
8.539729e+00
1.042667e+01
8.459552e+00
1.064545e+01
8.678335e+00
1.075648e+01
8.587120e+00
1.095018e+01
8.780824e+00
1.106279e+01
8.688997e+00
1.123319e+01
8.859397e+00
1.134072e+01
8.772383e+00
1.148988e+01
8.921547e+00
1.158899e+01
8.841911e+00
1.171900e+01
8.971919e+00
1.180827e+01
8.900643e+00
1.192107e+01
9.013437e+00
1.200013e+01
8.950655e+00
1.209746e+01
9.047982e+00
1.216653e+01
8.993404e+00
1.224991e+01
9.076791e+00
1.230944e+01
9.029939e+00
1.238020e+01
9.100703e+00
1.243076e+01
9.061045e+00
1.249001e+01
9.120298e+00
1.253217e+01
9.087318e+00
1.258084e+01
9.135987e+00
1.261513e+01
9.109223e+00
1.265397e+01
9.148063e+00
1.268085e+01
9.127123e+00
1.271046e+01
9.156734e+00
1.273029e+01
9.141302e+00
1.275113e+01
9.162137e+00
1.276420e+01
9.151979e+00
1.277657e+01
9.164354e+00
1.278306e+01
9.159314e+00
1.278717e+01
9.163419e+00
</DataArray>
<DataArray type="Float32" Name="V2" format="ascii">
8.226433e-01
9.300000e-01
8.245853e-01
9.317250e-01
8.245853e-01
9.317250e-01
8.303737e-01
9.368906e-01
8.303737e-01
9.368906e-01
8.399777e-01
9.454724e-01
8.399777e-01
9.454724e-01
8.533208e-01
9.574389e-01
8.533208e-01
9.574389e-01
8.702612e-01
9.727680e-01
8.702612e-01
9.727680e-01
8.905177e-01
9.914630e-01
8.905177e-01
9.914630e-01
9.134773e-01
1.013540e+00
9.134773e-01
1.013540e+00
9.380856e-01
1.038851e+00
9.380856e-01
1.038851e+00
9.626614e-01
1.064019e+00
9.626614e-01
1.064019e+00
9.843401e-01
1.085262e+00
9.843401e-01
1.085262e+00
1.003680e+00
1.104518e+00
1.003680e+00
1.104518e+00
1.020764e+00
1.121606e+00
1.020764e+00
1.121606e+00
1.035901e+00
1.136720e+00
1.035901e+00
1.136720e+00
1.049318e+00
1.150066e+00
1.049318e+00
1.150066e+00
1.061225e+00
1.161857e+00
1.061225e+00
1.161857e+00
1.071797e+00
1.172284e+00
1.071797e+00
1.172284e+00
1.081185e+00
1.181511e+00
1.081185e+00
1.181511e+00
1.089515e+00
1.189676e+00
1.089515e+00
1.189676e+00
1.096893e+00
1.196892e+00
1.096893e+00
1.196892e+00
1.103407e+00
1.203252e+00
1.103407e+00
1.203252e+00
1.109128e+00
1.208832e+00
1.109128e+00
1.208832e+00
1.114117e+00
1.213693e+00
1.114117e+00
1.213693e+00
1.118421e+00
1.217885e+00
1.118421e+00
1.217885e+00
1.122082e+00
1.221448e+00
1.122082e+00
1.221448e+00
1.125131e+00
1.224415e+00
1.125131e+00
1.224415e+00
1.127594e+00
1.226811e+00
1.127594e+00
1.226811e+00
1.129490e+00
1.228656e+00
1.129490e+00
1.228656e+00
1.130834e+00
1.229963e+00
1.130834e+00
1.229963e+00
1.131637e+00
1.230744e+00
1.131637e+00
1.230744e+00
1.131904e+00
1.231004e+00
</DataArray>
<DataArray type="Float32" Name="V3" format="ascii">
0.000000e+00
0.000000e+00
1.422081e-02
8.561492e-03
1.422081e-02
8.561492e-03
2.805452e-02
1.682083e-02
2.805452e-02
1.682083e-02
4.110133e-02
2.449602e-02
4.110133e-02
2.449602e-02
5.293715e-02
3.134284e-02
5.293715e-02
3.134284e-02
6.308963e-02
3.717565e-02
6.308963e-02
3.717565e-02
7.101270e-02
4.186615e-02
7.101270e-02
4.186615e-02
7.609905e-02
4.526512e-02
7.609905e-02
4.526512e-02
7.794122e-02
4.680647e-02
7.794122e-02
4.680647e-02
7.779486e-02
4.636445e-02
7.779486e-02
4.636445e-02
7.624992e-02
4.678229e-02
7.624992e-02
4.678229e-02
7.391907e-02
4.738372e-02
7.391907e-02
4.738372e-02
7.126758e-02
4.785256e-02
7.126758e-02
4.785256e-02
6.840047e-02
4.798395e-02
6.840047e-02
4.798395e-02
6.536960e-02
4.768458e-02
6.536960e-02
4.768458e-02
6.219050e-02
4.692668e-02
6.219050e-02
4.692668e-02
5.886635e-02
4.571822e-02
5.886635e-02
4.571822e-02
5.539694e-02
4.408561e-02
5.539694e-02
4.408561e-02
5.178281e-02
4.206373e-02
5.178281e-02
4.206373e-02
4.802677e-02
3.969041e-02
4.802677e-02
3.969041e-02
4.413411e-02
3.700356e-02
4.413411e-02
3.700356e-02
4.011234e-02
3.403967e-02
4.011234e-02
3.403967e-02
3.597087e-02
3.083331e-02
3.597087e-02
3.083331e-02
3.172052e-02
2.741697e-02
3.172052e-02
2.741697e-02
2.737322e-02
2.382117e-02
2.737322e-02
2.382117e-02
2.294171e-02
2.007467e-02
2.294171e-02
2.007467e-02
1.843931e-02
1.620477e-02
1.843931e-02
1.620477e-02
1.387980e-02
1.223754e-02
1.387980e-02
1.223754e-02
9.277219e-03
8.198114e-03
9.277219e-03
8.198114e-03
4.645827e-03
4.110939e-03
4.645827e-03
4.110939e-03
0.000000e+00
0.000000e+00
</DataArray>
<DataArray type="Float32" Name="V4" format="ascii">
8.500000e-01
1.000000e+00
8.500000e-01
1.000000e+00
8.500000e-01
1.000000e+00
8.500000e-01
1.000000e+00
8.500000e-01
1.000000e+00
8.500000e-01
1.000000e+00
8.500000e-01
1.000000e+00
8.500000e-01
1.000000e+00
8.500000e-01
1.000000e+00
8.500000e-01
1.000000e+00
8.500000e-01
1.000000e+00
8.500000e-01
1.000000e+00
8.500000e-01
1.000000e+00
8.500000e-01
1.000000e+00
8.500000e-01
1.000000e+00
8.500000e-01
1.000000e+00
8.500000e-01
1.000000e+00
8.500000e-01
1.000000e+00
8.500000e-01
1.000000e+00
8.500000e-01
1.000000e+00
8.500000e-01
1.000000e+00
8.500000e-01
1.000000e+00
8.500000e-01
1.000000e+00
8.500000e-01
1.000000e+00
8.500000e-01
1.000000e+00
8.500000e-01
1.000000e+00
8.500000e-01
1.000000e+00
8.500000e-01
1.000000e+00
8.500000e-01
1.000000e+00
8.500000e-01
1.000000e+00
8.500000e-01
1.000000e+00
8.500000e-01
1.000000e+00
8.500000e-01
1.000000e+00
8.500000e-01
1.000000e+00
8.500000e-01
1.000000e+00
8.500000e-01
1.000000e+00
8.500000e-01
1.000000e+00
8.500000e-01
1.000000e+00
8.500000e-01
1.000000e+00
8.500000e-01
1.000000e+00
8.500000e-01
1.000000e+00
8.500000e-01
1.000000e+00
8.500000e-01
1.000000e+00
8.500000e-01
1.000000e+00
8.500000e-01
1.000000e+00
8.500000e-01
1.000000e+00
8.500000e-01
1.000000e+00
8.500000e-01
1.000000e+00
8.500000e-01
1.000000e+00
8.500000e-01
1.000000e+00
8.500000e-01
1.000000e+00
8.500000e-01
1.000000e+00
8.500000e-01
1.000000e+00
8.500000e-01
1.000000e+00
8.500000e-01
1.000000e+00
8.500000e-01
1.000000e+00
8.500000e-01
1.000000e+00
8.500000e-01
1.000000e+00
8.500000e-01
1.000000e+00
8.500000e-01
1.000000e+00
</DataArray>
<DataArray type="Float32" Name="V5" format="ascii">
0.000000e+00
0.000000e+00
5.235988e-02
5.235988e-02
5.235988e-02
5.235988e-02
1.047198e-01
1.047198e-01
1.047198e-01
1.047198e-01
1.570796e-01
1.570796e-01
1.570796e-01
1.570796e-01
2.094395e-01
2.094395e-01
2.094395e-01
2.094395e-01
2.617994e-01
2.617994e-01
2.617994e-01
2.617994e-01
3.141593e-01
3.141593e-01
3.141593e-01
3.141593e-01
3.665191e-01
3.665191e-01
3.665191e-01
3.665191e-01
4.188790e-01
4.188790e-01
4.188790e-01
4.188790e-01
4.712389e-01
4.712389e-01
4.712389e-01
4.712389e-01
5.235988e-01
5.235988e-01
5.235988e-01
5.235988e-01
5.759587e-01
5.759587e-01
5.759587e-01
5.759587e-01
6.283185e-01
6.283185e-01
6.283185e-01
6.283185e-01
6.806784e-01
6.806784e-01
6.806784e-01
6.806784e-01
7.330383e-01
7.330383e-01
7.330383e-01
7.330383e-01
7.853982e-01
7.853982e-01
7.853982e-01
7.853982e-01
8.377580e-01
8.377580e-01
8.377580e-01
8.377580e-01
8.901179e-01
8.901179e-01
8.901179e-01
8.901179e-01
9.424778e-01
9.424778e-01
9.424778e-01
9.424778e-01
9.948377e-01
9.948377e-01
9.948377e-01
9.948377e-01
1.047198e+00
1.047198e+00
1.047198e+00
1.047198e+00
1.099557e+00
1.099557e+00
1.099557e+00
1.099557e+00
1.151917e+00
1.151917e+00
1.151917e+00
1.151917e+00
1.204277e+00
1.204277e+00
1.204277e+00
1.204277e+00
1.256637e+00
1.256637e+00
1.256637e+00
1.256637e+00
1.308997e+00
1.308997e+00
1.308997e+00
1.308997e+00
1.361357e+00
1.361357e+00
1.361357e+00
1.361357e+00
1.413717e+00
1.413717e+00
1.413717e+00
1.413717e+00
1.466077e+00
1.466077e+00
1.466077e+00
1.466077e+00
1.518436e+00
1.518436e+00
1.518436e+00
1.518436e+00
1.570796e+00
1.570796e+00
</DataArray>
</PointData>
</Piece></UnstructuredGrid>
</VTKFile>
