<?xml version="1.0"?>
<VTKFile type="UnstructuredGrid" version="0.1" byte_order="LittleEndian" compressor="vtkZLibDataCompressor">
<UnstructuredGrid>
<Piece NumberOfPoints="120" NumberOfCells="30">
<Points>
<DataArray type="Float32" NumberOfComponents="3" format="ascii">
0.000000e+00 1.034887e+00 0.000000e+00
0.000000e+00 1.140000e+00 0.000000e+00
5.467976e-02 1.034230e+00 0.000000e+00
6.060401e-02 1.140000e+00 0.000000e+00
5.467976e-02 1.034230e+00 0.000000e+00
6.060401e-02 1.140000e+00 0.000000e+00
1.096183e-01 1.031512e+00 0.000000e+00
1.201961e-01 1.138183e+00 0.000000e+00
1.096183e-01 1.031512e+00 0.000000e+00
1.201961e-01 1.138183e+00 0.000000e+00
1.638554e-01 1.025298e+00 0.000000e+00
1.796230e-01 1.131250e+00 0.000000e+00
1.638554e-01 1.025298e+00 0.000000e+00
1.796230e-01 1.131250e+00 0.000000e+00
2.175477e-01 1.016192e+00 0.000000e+00
2.388139e-01 1.121107e+00 0.000000e+00
2.175477e-01 1.016192e+00 0.000000e+00
2.388139e-01 1.121107e+00 0.000000e+00
2.706403e-01 1.004109e+00 0.000000e+00
2.974306e-01 1.107702e+00 0.000000e+00
2.706403e-01 1.004109e+00 0.000000e+00
2.974306e-01 1.107702e+00 0.000000e+00
3.230032e-01 9.891499e-01 0.000000e+00
3.552686e-01 1.091131e+00 0.000000e+00
3.230032e-01 9.891499e-01 0.000000e+00
3.552686e-01 1.091131e+00 0.000000e+00
3.744953e-01 9.713788e-01 0.000000e+00
4.121440e-01 1.071466e+00 0.000000e+00
3.744953e-01 9.713788e-01 0.000000e+00
4.121440e-01 1.071466e+00 0.000000e+00
4.249745e-01 9.508641e-01 0.000000e+00
4.678904e-01 1.048781e+00 0.000000e+00
4.249745e-01 9.508641e-01 0.000000e+00
4.678904e-01 1.048781e+00 0.000000e+00
4.742998e-01 9.276766e-01 0.000000e+00
5.223501e-01 1.023156e+00 0.000000e+00
4.742998e-01 9.276766e-01 0.000000e+00
5.223501e-01 1.023156e+00 0.000000e+00
5.223338e-01 9.018914e-01 0.000000e+00
5.753719e-01 9.946734e-01 0.000000e+00
5.223338e-01 9.018914e-01 0.000000e+00
5.753719e-01 9.946734e-01 0.000000e+00
5.689426e-01 8.735883e-01 0.000000e+00
6.268099e-01 9.634205e-01 0.000000e+00
5.689426e-01 8.735883e-01 0.000000e+00
6.268099e-01 9.634205e-01 0.000000e+00
6.139968e-01 8.428524e-01 0.000000e+00
6.765233e-01 9.294909e-01 0.000000e+00
6.139968e-01 8.428524e-01 0.000000e+00
6.765233e-01 9.294909e-01 0.000000e+00
6.573716e-01 8.097740e-01 0.000000e+00
7.243763e-01 8.929839e-01 0.000000e+00
6.573716e-01 8.097740e-01 0.000000e+00
7.243763e-01 8.929839e-01 0.000000e+00
6.989470e-01 7.744487e-01 0.000000e+00
7.702383e-01 8.540045e-01 0.000000e+00
6.989470e-01 7.744487e-01 0.000000e+00
7.702383e-01 8.540045e-01 0.000000e+00
7.386084e-01 7.369775e-01 0.000000e+00
8.139842e-01 8.126635e-01 0.000000e+00
7.386084e-01 7.369775e-01 0.000000e+00
8.139842e-01 8.126635e-01 0.000000e+00
7.762466e-01 6.974665e-01 0.000000e+00
8.554948e-01 7.690776e-01 0.000000e+00
7.762466e-01 6.974665e-01 0.000000e+00
8.554948e-01 7.690776e-01 0.000000e+00
8.117579e-01 6.560269e-01 0.000000e+00
8.946568e-01 7.233690e-01 0.000000e+00
8.117579e-01 6.560269e-01 0.000000e+00
8.946568e-01 7.233690e-01 0.000000e+00
8.450448e-01 6.127749e-01 0.000000e+00
9.313634e-01 6.756652e-01 0.000000e+00
8.450448e-01 6.127749e-01 0.000000e+00
9.313634e-01 6.756652e-01 0.000000e+00
8.760158e-01 5.678309e-01 0.000000e+00
9.655144e-01 6.260989e-01 0.000000e+00
8.760158e-01 5.678309e-01 0.000000e+00
9.655144e-01 6.260989e-01 0.000000e+00
9.045860e-01 5.213201e-01 0.000000e+00
9.970167e-01 5.748075e-01 0.000000e+00
9.045860e-01 5.213201e-01 0.000000e+00
9.970167e-01 5.748075e-01 0.000000e+00
9.306770e-01 4.733714e-01 0.000000e+00
1.025784e+00 5.219331e-01 0.000000e+00
9.306770e-01 4.733714e-01 0.000000e+00
1.025784e+00 5.219331e-01 0.000000e+00
9.542173e-01 4.241176e-01 0.000000e+00
1.051739e+00 4.676217e-01 0.000000e+00
9.542173e-01 4.241176e-01 0.000000e+00
1.051739e+00 4.676217e-01 0.000000e+00
9.751423e-01 3.736950e-01 0.000000e+00
1.074809e+00 4.120233e-01 0.000000e+00
9.751423e-01 3.736950e-01 0.000000e+00
1.074809e+00 4.120233e-01 0.000000e+00
9.933946e-01 3.222427e-01 0.000000e+00
1.094932e+00 3.552911e-01 0.000000e+00
9.933946e-01 3.222427e-01 0.000000e+00
1.094932e+00 3.552911e-01 0.000000e+00
1.008924e+00 2.699027e-01 0.000000e+00
1.112054e+00 2.975815e-01 0.000000e+00
1.008924e+00 2.699027e-01 0.000000e+00
1.112054e+00 2.975815e-01 0.000000e+00
1.021689e+00 2.168194e-01 0.000000e+00
1.126126e+00 2.390533e-01 0.000000e+00
1.021689e+00 2.168194e-01 0.000000e+00
1.126126e+00 2.390533e-01 0.000000e+00
1.031653e+00 1.631391e-01 0.000000e+00
1.137112e+00 1.798676e-01 0.000000e+00
1.031653e+00 1.631391e-01 0.000000e+00
1.137112e+00 1.798676e-01 0.000000e+00
1.038790e+00 1.090096e-01 0.000000e+00
1.144980e+00 1.201872e-01 0.000000e+00
1.038790e+00 1.090096e-01 0.000000e+00
1.144980e+00 1.201872e-01 0.000000e+00
1.043080e+00 5.457990e-02 0.000000e+00
1.149709e+00 6.017634e-02 0.000000e+00
1.043080e+00 5.457990e-02 0.000000e+00
1.149709e+00 6.017634e-02 0.000000e+00
1.044512e+00 5.114540e-12 0.000000e+00
1.151287e+00 5.637380e-12 0.000000e+00
</DataArray>
</Points>
<Cells>
<DataArray type="Int32" Name="connectivity" format="ascii">
0 1 3 2
4 5 7 6
8 9 11 10
12 13 15 14
16 17 19 18
20 21 23 22
24 25 27 26
28 29 31 30
32 33 35 34
36 37 39 38
40 41 43 42
44 45 47 46
48 49 51 50
52 53 55 54
56 57 59 58
60 61 63 62
64 65 67 66
68 69 71 70
72 73 75 74
76 77 79 78
80 81 83 82
84 85 87 86
88 89 91 90
92 93 95 94
96 97 99 98
100 101 103 102
104 105 107 106
108 109 111 110
112 113 115 114
116 117 119 118
</DataArray>
<DataArray type="Int32" Name="offsets" format="ascii">
4
8
12
16
20
24
28
32
36
40
44
48
52
56
60
64
68
72
76
80
84
88
92
96
100
104
108
112
116
120
</DataArray>
<DataArray type="UInt8" Name="types" format="ascii">
9
9
9
9
9
9
9
9
9
9
9
9
9
9
9
9
9
9
9
9
9
9
9
9
9
9
9
9
9
9
</DataArray>
</Cells>
<PointData>
<DataArray type="Float32" Name="V1" format="ascii">
9.690408e+00
4.530188e+00
1.005667e+01
4.896454e+00
9.067464e+00
5.962676e+00
9.491922e+00
6.387134e+00
9.068428e+00
6.574046e+00
9.092993e+00
6.598612e+00
8.998413e+00
6.676572e+00
9.019398e+00
6.697557e+00
8.965225e+00
6.739812e+00
8.980954e+00
6.755541e+00
8.957374e+00
6.774316e+00
8.969960e+00
6.786902e+00
8.959596e+00
6.795079e+00
8.969768e+00
6.805252e+00
8.966262e+00
6.808018e+00
8.974628e+00
6.816384e+00
8.974474e+00
6.816499e+00
8.981438e+00
6.823463e+00
8.982876e+00
6.822323e+00
8.988729e+00
6.828176e+00
8.990840e+00
6.826508e+00
8.995798e+00
6.831466e+00
8.998108e+00
6.829642e+00
9.002334e+00
6.833868e+00
9.004608e+00
6.832075e+00
9.008228e+00
6.835696e+00
9.010353e+00
6.834021e+00
9.013467e+00
6.837134e+00
9.015399e+00
6.835612e+00
9.018084e+00
6.838298e+00
9.019812e+00
6.836938e+00
9.022134e+00
6.839260e+00
9.023662e+00
6.838057e+00
9.025671e+00
6.840066e+00
9.027015e+00
6.839009e+00
9.028754e+00
6.840748e+00
9.029928e+00
6.839824e+00
9.031432e+00
6.841328e+00
9.032453e+00
6.840525e+00
9.033751e+00
6.841822e+00
9.034635e+00
6.841128e+00
9.035750e+00
6.842243e+00
9.036510e+00
6.841646e+00
9.037462e+00
6.842598e+00
9.038111e+00
6.842089e+00
9.038918e+00
6.842896e+00
9.039464e+00
6.842467e+00
9.040139e+00
6.843142e+00
9.040592e+00
6.842785e+00
9.041146e+00
6.843339e+00
9.041514e+00
6.843050e+00
9.041955e+00
6.843492e+00
9.042243e+00
6.843266e+00
9.042579e+00
6.843603e+00
9.042791e+00
6.843436e+00
9.043028e+00
6.843673e+00
9.043167e+00
6.843563e+00
9.043308e+00
6.843704e+00
9.043377e+00
6.843649e+00
9.043423e+00
6.843696e+00
</DataArray>
<DataArray type="Float32" Name="V2" format="ascii">
1.034887e+00
1.140000e+00
1.035674e+00
1.141609e+00
1.035674e+00
1.141609e+00
1.037320e+00
1.144512e+00
1.037320e+00
1.144512e+00
1.038308e+00
1.145422e+00
1.038308e+00
1.145422e+00
1.039216e+00
1.146261e+00
1.039216e+00
1.146261e+00
1.039942e+00
1.146939e+00
1.039942e+00
1.146939e+00
1.040551e+00
1.147512e+00
1.040551e+00
1.147512e+00
1.041067e+00
1.147999e+00
1.041067e+00
1.147999e+00
1.041510e+00
1.148418e+00
1.041510e+00
1.148418e+00
1.041894e+00
1.148781e+00
1.041894e+00
1.148781e+00
1.042228e+00
1.149098e+00
1.042228e+00
1.149098e+00
1.042521e+00
1.149378e+00
1.042521e+00
1.149378e+00
1.042780e+00
1.149624e+00
1.042780e+00
1.149624e+00
1.043010e+00
1.149844e+00
1.043010e+00
1.149844e+00
1.043214e+00
1.150039e+00
1.043214e+00
1.150039e+00
1.043397e+00
1.150214e+00
1.043397e+00
1.150214e+00
1.043560e+00
1.150370e+00
1.043560e+00
1.150370e+00
1.043705e+00
1.150510e+00
1.043705e+00
1.150510e+00
1.043836e+00
1.150635e+00
1.043836e+00
1.150635e+00
1.043952e+00
1.150746e+00
1.043952e+00
1.150746e+00
1.044055e+00
1.150846e+00
1.044055e+00
1.150846e+00
1.044145e+00
1.150933e+00
1.044145e+00
1.150933e+00
1.044225e+00
1.151010e+00
1.044225e+00
1.151010e+00
1.044294e+00
1.151077e+00
1.044294e+00
1.151077e+00
1.044353e+00
1.151134e+00
1.044353e+00
1.151134e+00
1.044402e+00
1.151181e+00
1.044402e+00
1.151181e+00
1.044442e+00
1.151220e+00
1.044442e+00
1.151220e+00
1.044473e+00
1.151249e+00
1.044473e+00
1.151249e+00
1.044494e+00
1.151270e+00
1.044494e+00
1.151270e+00
1.044507e+00
1.151283e+00
1.044507e+00
1.151283e+00
1.044512e+00
1.151287e+00
</DataArray>
<DataArray type="Float32" Name="V3" format="ascii">
0.000000e+00
0.000000e+00
4.774046e-04
8.579608e-04
4.774046e-04
8.579608e-04
1.195417e-03
5.651291e-04
1.195417e-03
5.651291e-04
1.446093e-03
4.450620e-04
1.446093e-03
4.450620e-04
1.515597e-03
5.039240e-04
1.515597e-03
5.039240e-04
1.535878e-03
6.014671e-04
1.535878e-03
6.014671e-04
1.530125e-03
7.023555e-04
1.530125e-03
7.023555e-04
1.510487e-03
7.904981e-04
1.510487e-03
7.904981e-04
1.482215e-03
8.612463e-04
1.482215e-03
8.612463e-04
1.447850e-03
9.140255e-04
1.447850e-03
9.140255e-04
1.408605e-03
9.499324e-04
1.408605e-03
9.499324e-04
1.365081e-03
9.706163e-04
1.365081e-03
9.706163e-04
1.317599e-03
9.778127e-04
1.317599e-03
9.778127e-04
1.266363e-03
9.731515e-04
1.266363e-03
9.731515e-04
1.211536e-03
9.580909e-04
1.211536e-03
9.580909e-04
1.153274e-03
9.339087e-04
1.153274e-03
9.339087e-04
1.091741e-03
9.017157e-04
1.091741e-03
9.017157e-04
1.027113e-03
8.624776e-04
1.027113e-03
8.624776e-04
9.595755e-04
8.170379e-04
9.595755e-04
8.170379e-04
8.893264e-04
7.661393e-04
8.893264e-04
7.661393e-04
8.165719e-04
7.104420e-04
8.165719e-04
7.104420e-04
7.415249e-04
6.505388e-04
7.415249e-04
6.505388e-04
6.644037e-04
5.869687e-04
6.644037e-04
5.869687e-04
5.854309e-04
5.202266e-04
5.854309e-04
5.202266e-04
5.048323e-04
4.507724e-04
5.048323e-04
4.507724e-04
4.228363e-04
3.790382e-04
4.228363e-04
3.790382e-04
3.396731e-04
3.054339e-04
3.396731e-04
3.054339e-04
2.555747e-04
2.303522e-04
2.555747e-04
2.303522e-04
1.707737e-04
1.541732e-04
1.707737e-04
1.541732e-04
8.550411e-05
7.726753e-05
8.550411e-05
7.726753e-05
0.000000e+00
0.000000e+00
</DataArray>
<DataArray type="Float32" Name="V4" format="ascii">
8.500000e-01
1.000000e+00
8.500000e-01
1.000000e+00
8.500000e-01
1.000000e+00
8.500000e-01
1.000000e+00
8.500000e-01
1.000000e+00
8.500000e-01
1.000000e+00
8.500000e-01
1.000000e+00
8.500000e-01
1.000000e+00
8.500000e-01
1.000000e+00
8.500000e-01
1.000000e+00
8.500000e-01
1.000000e+00
8.500000e-01
1.000000e+00
8.500000e-01
1.000000e+00
8.500000e-01
1.000000e+00
8.500000e-01
1.000000e+00
8.500000e-01
1.000000e+00
8.500000e-01
1.000000e+00
8.500000e-01
1.000000e+00
8.500000e-01
1.000000e+00
8.500000e-01
1.000000e+00
8.500000e-01
1.000000e+00
8.500000e-01
1.000000e+00
8.500000e-01
1.000000e+00
8.500000e-01
1.000000e+00
8.500000e-01
1.000000e+00
8.500000e-01
1.000000e+00
8.500000e-01
1.000000e+00
8.500000e-01
1.000000e+00
8.500000e-01
1.000000e+00
8.500000e-01
1.000000e+00
8.500000e-01
1.000000e+00
8.500000e-01
1.000000e+00
8.500000e-01
1.000000e+00
8.500000e-01
1.000000e+00
8.500000e-01
1.000000e+00
8.500000e-01
1.000000e+00
8.500000e-01
1.000000e+00
8.500000e-01
1.000000e+00
8.500000e-01
1.000000e+00
8.500000e-01
1.000000e+00
8.500000e-01
1.000000e+00
8.500000e-01
1.000000e+00
8.500000e-01
1.000000e+00
8.500000e-01
1.000000e+00
8.500000e-01
1.000000e+00
8.500000e-01
1.000000e+00
8.500000e-01
1.000000e+00
8.500000e-01
1.000000e+00
8.500000e-01
1.000000e+00
8.500000e-01
1.000000e+00
8.500000e-01
1.000000e+00
8.500000e-01
1.000000e+00
8.500000e-01
1.000000e+00
8.500000e-01
1.000000e+00
8.500000e-01
1.000000e+00
8.500000e-01
1.000000e+00
8.500000e-01
1.000000e+00
8.500000e-01
1.000000e+00
8.500000e-01
1.000000e+00
8.500000e-01
1.000000e+00
</DataArray>
<DataArray type="Float32" Name="V5" format="ascii">
0.000000e+00
0.000000e+00
5.235988e-02
5.235988e-02
5.235988e-02
5.235988e-02
1.047198e-01
1.047198e-01
1.047198e-01
1.047198e-01
1.570796e-01
1.570796e-01
1.570796e-01
1.570796e-01
2.094395e-01
2.094395e-01
2.094395e-01
2.094395e-01
2.617994e-01
2.617994e-01
2.617994e-01
2.617994e-01
3.141593e-01
3.141593e-01
3.141593e-01
3.141593e-01
3.665191e-01
3.665191e-01
3.665191e-01
3.665191e-01
4.188790e-01
4.188790e-01
4.188790e-01
4.188790e-01
4.712389e-01
4.712389e-01
4.712389e-01
4.712389e-01
5.235988e-01
5.235988e-01
5.235988e-01
5.235988e-01
5.759587e-01
5.759587e-01
5.759587e-01
5.759587e-01
6.283185e-01
6.283185e-01
6.283185e-01
6.283185e-01
6.806784e-01
6.806784e-01
6.806784e-01
6.806784e-01
7.330383e-01
7.330383e-01
7.330383e-01
7.330383e-01
7.853982e-01
7.853982e-01
7.853982e-01
7.853982e-01
8.377580e-01
8.377580e-01
8.377580e-01
8.377580e-01
8.901179e-01
8.901179e-01
8.901179e-01
8.901179e-01
9.424778e-01
9.424778e-01
9.424778e-01
9.424778e-01
9.948377e-01
9.948377e-01
9.948377e-01
9.948377e-01
1.047198e+00
1.047198e+00
1.047198e+00
1.047198e+00
1.099557e+00
1.099557e+00
1.099557e+00
1.099557e+00
1.151917e+00
1.151917e+00
1.151917e+00
1.151917e+00
1.204277e+00
1.204277e+00
1.204277e+00
1.204277e+00
1.256637e+00
1.256637e+00
1.256637e+00
1.256637e+00
1.308997e+00
1.308997e+00
1.308997e+00
1.308997e+00
1.361357e+00
1.361357e+00
1.361357e+00
1.361357e+00
1.413717e+00
1.413717e+00
1.413717e+00
1.413717e+00
1.466077e+00
1.466077e+00
1.466077e+00
1.466077e+00
1.518436e+00
1.518436e+00
1.518436e+00
1.518436e+00
1.570796e+00
1.570796e+00
</DataArray>
</PointData>
</Piece></UnstructuredGrid>
</VTKFile>
